TITLE = "SU2 Simulation"
VARIABLES = "Iteration","Buffet_Metric","TotalPressureLoss_1","KineticEnergyLoss_1","EntropyGen_1","EulerianWork_1","PressureRatio_1","FlowAngleIn_1","FlowAngleOut_1","AbsFlowAngleIn_1","AbsFlowAngleOut_1","MassFlowIn_1","MassFlowOut_1","MachIn_1","MachOut_1","TotalEfficiency_1","TotalStaticEfficiency_1","Res_Flow[0]","Res_Flow[1]","Res_Flow[2]","Res_Flow[3]","Res_Flow[4]","Linear_Solver_Iterations","CFL_Number","Time(min)"
ZONE T= "Convergence history"
           0, 0.9162525927, 0.8738715139, 0.0122800735, 5619.4455090736, 0.8107939479, -0.6642058102, -0.1144509195, -0.6642058102, -0.1144509195, 0.0000029748, 344.3378351891, 0.0000000010, 0.1757709721, 0.0000000000, 0.0000000000, 1.16088991e+00, 3.64731018e+00, -5.31886037e+00, 6.64586844e+00, 0.00000000e+00, 9.0000000000, 10.0000000000, 0.0000785309
           1, 0.8495302409, 0.6672191320, 0.0148690998, 20109.5612853304, 0.6754723984, -1.4322438058, -0.4019469886, -1.4322438058, -0.4019469886, 0.0000029227, 564.5820780711, 0.0000000010, 0.3587216882, 0.0000000000, 0.0000000000, 1.00133804e+00, 3.38658856e+00, 2.80414249e+00, 6.47738889e+00, 0.00000000e+00, 10.0000000000, 10.0000000000, 0.0001736889
           2, 0.7903475729, 0.3878334847, 0.0107046764, 36838.2553504898, 0.5931097082, -2.7305637689, -0.7124003426, -2.7305637689, -0.7124003426, 0.0000031811, 700.2689773694, 0.0000000011, 0.5434606073, 0.0000000000, 0.0000000000, 8.60251304e-01, 3.19571578e+00, 2.89742442e+00, 6.34155360e+00, 0.00000000e+00, 10.0000000000, 10.0000000000, 0.0002644535
           3, 0.7423950681, 0.2021694728, 0.0070411368, 46765.6181144647, 0.5547026032, -5.8793428511, -0.9264294613, -5.8793428511, -0.9264294613, 0.0000107709, 768.8101981551, 0.0000000036, 0.6991943078, 0.0000000000, 0.0000000000, 7.66033052e-01, 3.09600911e+00, 2.91710909e+00, 6.24400011e+00, 0.00000000e+00, 10.0000000000, 10.0000000000, 0.0003716107
           4, 0.7089451902, 0.1391800617, 0.0060186138, 50268.8210102638, 0.5394529500, -7.2227105247, -0.9272903649, -7.2227105247, -0.9272903649, 0.0001175002, 796.1952403789, 0.0000000394, 0.8100071914, 0.0000000000, 0.0000000000, 7.10514160e-01, 3.03387155e+00, 2.90773671e+00, 6.18353411e+00, 0.00000000e+00, 10.0000000000, 10.0000000000, 0.0004627941
           5, 0.6842659519, 0.1090104889, 0.0055381521, 51844.5070404938, 0.5327852242, -7.7723403833, -0.6097185867, -7.7723403833, -0.6097185867, 0.0011636450, 807.3281919531, 0.0000003908, 0.8935992844, 0.0000000000, 0.0000000000, 6.62958833e-01, 2.98720057e+00, 2.88706818e+00, 6.13594399e+00, 0.00000000e+00, 10.0000000000, 10.0000000000, 0.0005572550
           6, 0.6653575520, 0.0883422747, 0.0050194427, 52709.1495223224, 0.5308250512, -8.1848745496, 0.0075802523, -8.1848745496, 0.0075802523, 0.0088138138, 812.3645922597, 0.0000029634, 0.9563516865, 0.0000000000, 0.0000000000, 6.19437060e-01, 2.94756543e+00, 2.86795181e+00, 6.09432260e+00, 0.00000000e+00, 10.0000000000, 10.0000000000, 0.0006531161
           7, 0.6512595419, 0.0730166736, 0.0044827303, 53295.5585604296, 0.5307118712, -8.4915259118, 0.8008483701, -8.4915259118, 0.8008483701, 0.0523473692, 814.2197965416, 0.0000176145, 1.0029090438, 0.0000000000, 0.0000000000, 5.85056611e-01, 2.91095768e+00, 2.85514424e+00, 6.06194147e+00, 0.00000000e+00, 10.0000000000, 10.0000000000, 0.0007435197
           8, 0.6413363632, 0.0624322921, 0.0040507435, 53747.5117585296, 0.5307351968, -8.6659263655, 1.6208526266, -8.6659263655, 1.6208526266, 0.2506352925, 813.6612829196, 0.0000843811, 1.0372801046, 0.0000000000, 0.0000000000, 5.59261277e-01, 2.87695345e+00, 2.85150860e+00, 6.03790279e+00, 0.00000000e+00, 10.0000000000, 10.0000000000, 0.0008342697
           9, 0.6341950268, 0.0555557630, 0.0037556927, 54044.9575891821, 0.5307989764, -8.6766554871, 2.3300646557, -8.6766554871, 2.3300646557, 0.9886269283, 811.9741227038, 0.0003329230, 1.0629540763, 0.0000000000, 0.0000000000, 5.39198271e-01, 2.84614511e+00, 2.85316564e+00, 6.01947224e+00, 0.00000000e+00, 10.0000000000, 10.0000000000, 0.0009244350
          10, 0.6283079345, 0.0510087379, 0.0035594602, 54136.9935458404, 0.5314493615, -8.5000350786, 2.8540661782, -8.5000350786, 2.8540661782, 3.2699787784, 810.4246560417, 0.0011013598, 1.0827358276, 0.0000000000, 0.0000000000, 5.22641694e-01, 2.81847321e+00, 2.85695348e+00, 6.00465197e+00, 0.00000000e+00, 10.0000000000, 10.0000000000, 0.0010143024
          11, 0.6222525006, 0.0477412550, 0.0034171455, 53934.6854432466, 0.5334974942, -8.1233598115, 3.1871328797, -8.1233598115, 3.1871328797, 9.2071078188, 810.0323949904, 0.0031027343, 1.0985981628, 0.0000000000, 0.0000000000, 5.06854194e-01, 2.79280493e+00, 2.86053408e+00, 5.99071407e+00, 0.00000000e+00, 10.0000000000, 10.0000000000, 0.0011181130
          12, 0.6148783070, 0.0452155255, 0.0033063313, 53339.6557251288, 0.5376667203, -7.5465085263, 3.3698558697, -7.5465085263, 3.3698558697, 22.3684251500, 811.2940581462, 0.0075501979, 1.1119913663, 0.0000000000, 0.0000000000, 4.90268956e-01, 2.76917540e+00, 2.86193385e+00, 5.97607099e+00, 0.00000000e+00, 10.0000000000, 10.0000000000, 0.0012108348
          13, 0.6052298783, 0.0429768789, 0.0032061586, 52299.4978184486, 0.5444301385, -6.7845935096, 3.4587844131, -6.7845935096, 3.4587844131, 47.4960019981, 814.2253503682, 0.0160860805, 1.1245902225, 0.0000000000, 0.0000000000, 4.71692203e-01, 2.74932464e+00, 2.85988511e+00, 5.95936980e+00, 0.00000000e+00, 10.0000000000, 10.0000000000, 0.0013010958
          14, 0.5926667502, 0.0407939485, 0.0031111512, 50828.3031530913, 0.5538354609, -5.8751105163, 3.5018314541, -5.8751105163, 3.5018314541, 89.2907854161, 818.4495968860, 0.0304091219, 1.1384484107, 0.0000000000, 0.0000000000, 4.49895138e-01, 2.73719877e+00, 2.85156315e+00, 5.93925048e+00, 0.00000000e+00, 10.0000000000, 10.0000000000, 0.0013971985
          15, 0.5770340278, 0.0383511298, 0.0030031904, 49027.5014855594, 0.5655594271, -4.8718807917, 3.5300347733, -4.8718807917, 3.5300347733, 150.6100416304, 823.6801032734, 0.0516787490, 1.1551729654, 0.0000000000, 0.0000000000, 4.23285838e-01, 2.73977062e+00, 2.83325287e+00, 5.91413189e+00, 0.00000000e+00, 10.0000000000, 10.0000000000, 0.0014895881
          16, 0.5584025303, 0.0355109856, 0.0028741145, 47018.2217852803, 0.5791228411, -3.8327621737, 3.5587439043, -3.8327621737, 3.5587439043, 230.9970111445, 829.8363873203, 0.0799634620, 1.1762660426, 0.0000000000, 0.0000000000, 3.89107536e-01, 2.76044313e+00, 2.79905588e+00, 5.88173845e+00, 0.00000000e+00, 10.0000000000, 10.0000000000, 0.0015790871
          17, 0.5629084604, 0.0346594994, 0.0028116948, 47951.3898141809, 0.5742044365, -3.3172789669, 3.5594578040, -3.3172789669, 3.5594578040, 262.5495692008, 830.5240733412, 0.0901570979, 1.1782123294, 0.0000000000, 0.0000000000, 3.44622042e-01, 2.79278994e+00, 2.74190625e+00, 5.84081494e+00, 0.00000000e+00, 7.0000000000, 10.0000000000, 0.0016595908
          18, 0.5664349069, 0.0339117903, 0.0027591692, 48729.9781906281, 0.5701694793, -2.9113863908, 3.5626388106, -2.9113863908, 3.5626388106, 291.9656089034, 831.1726772320, 0.0995956177, 1.1804642337, 0.0000000000, 0.0000000000, 2.35889257e-01, 2.78246166e+00, 2.54981697e+00, 5.72006309e+00, 0.00000000e+00, 8.0000000000, 10.0000000000, 0.0017431701
          19, 0.5685325823, 0.0332568128, 0.0027158212, 49271.7173464628, 0.5674675292, -2.5784703296, 3.5721258574, -2.5784703296, 3.5721258574, 317.7892958206, 831.7754641076, 0.1079004173, 1.1830775573, 0.0000000000, 0.0000000000, 1.56134196e-01, 2.77953606e+00, 2.38485417e+00, 5.62603747e+00, 0.00000000e+00, 8.0000000000, 10.0000000000, 0.0018252523
          20, 0.5690871960, 0.0326514534, 0.0026782841, 49556.2866533960, 0.5662085985, -2.2936185085, 3.5916748702, -2.2936185085, 3.5916748702, 339.9275515614, 832.3094080735, 0.1151223165, 1.1861249270, 0.0000000000, 0.0000000000, 1.13226647e-01, 2.78047991e+00, 2.25185230e+00, 5.57175674e+00, 0.00000000e+00, 8.0000000000, 10.0000000000, 0.0019159063
          21, 0.5682541333, 0.0320423892, 0.0026423227, 49615.4934222707, 0.5662236462, -2.0359378127, 3.6238231387, -2.0359378127, 3.6238231387, 359.3059861677, 832.7464611330, 0.1216014007, 1.1896916588, 0.0000000000, 0.0000000000, 8.88727120e-02, 2.78117235e+00, 2.15600708e+00, 5.53842995e+00, 0.00000000e+00, 9.0000000000, 10.0000000000, 0.0020025730
          22, 0.5663703580, 0.0313792401, 0.0026039096, 49516.5781712051, 0.5671538540, -1.7915829225, 3.6683957517, -1.7915829225, 3.6683957517, 377.3407380649, 833.0600326289, 0.1277919687, 1.1938760358, 0.0000000000, 0.0000000000, 7.01982273e-02, 2.77973774e+00, 2.11092953e+00, 5.51043625e+00, 0.00000000e+00, 9.0000000000, 10.0000000000, 0.0020902371
          23, 0.5637745918, 0.0306305162, 0.0025605664, 49327.2701527132, 0.5686348860, -1.5592797781, 3.7228822949, -1.5592797781, 3.7228822949, 395.5150977941, 833.2333268783, 0.1341539822, 1.1987893729, 0.0000000000, 0.0000000000, 6.05835307e-02, 2.77732225e+00, 2.10809102e+00, 5.49333656e+00, 0.00000000e+00, 10.0000000000, 10.0000000000, 0.0021866649
          24, 0.5607030658, 0.0297679993, 0.0025100859, 49098.2320801673, 0.5703997383, -1.3437806185, 3.7824878394, -1.3437806185, 3.7824878394, 415.0178660986, 833.2636699311, 0.1410540403, 1.2045757341, 0.0000000000, 0.0000000000, 6.17478854e-02, 2.77590296e+00, 2.13157486e+00, 5.49177037e+00, 0.00000000e+00, 10.0000000000, 10.0000000000, 0.0022795459
          25, 0.5572647563, 0.0287769240, 0.0024512967, 48856.3013155587, 0.5723087409, -1.1481821946, 3.8405581649, -1.1481821946, 3.8405581649, 436.5647508186, 833.1400821788, 0.1487183773, 1.2113923074, 0.0000000000, 0.0000000000, 6.63922856e-02, 2.77636503e+00, 2.15923086e+00, 5.49688172e+00, 0.00000000e+00, 10.0000000000, 10.0000000000, 0.0023685222
          26, 0.5534893909, 0.0276796926, 0.0023860573, 48609.5813997154, 0.5743078569, -0.9788601078, 3.8900123657, -0.9788601078, 3.8900123657, 460.4583706278, 832.8307574605, 0.1572507375, 1.2193804750, 0.0000000000, 0.0000000000, 6.60682797e-02, 2.77864228e+00, 2.17771615e+00, 5.49773745e+00, 0.00000000e+00, 10.0000000000, 10.0000000000, 0.0024584434
          27, 0.5493629617, 0.0265579846, 0.0023212507, 48350.7581458088, 0.5764022452, -0.8442975122, 3.9233053100, -0.8442975122, 3.9233053100, 486.6726105923, 832.3239981263, 0.1666508901, 1.2286220504, 0.0000000000, 0.0000000000, 5.34164348e-02, 2.78254654e+00, 2.18835902e+00, 5.48587756e+00, 0.00000000e+00, 10.0000000000, 10.0000000000, 0.0025492350
          28, 0.5446671105, 0.0253870784, 0.0022548620, 48056.6175190913, 0.5787682070, -0.7461387789, 3.9326087036, -0.7461387789, 3.9326087036, 514.9339020797, 831.7846982585, 0.1768305145, 1.2393533562, 0.0000000000, 0.0000000000, 1.38797568e-02, 2.78757466e+00, 2.19473161e+00, 5.44429518e+00, 0.00000000e+00, 10.0000000000, 10.0000000000, 0.0026556093
          29, 0.5390829489, 0.0242417832, 0.0021935251, 47677.6100565508, 0.5817005700, -0.6732790843, 3.9159854325, -0.6732790843, 3.9159854325, 544.7991345401, 831.5175611839, 0.1876360511, 1.2517259946, 0.0000000000, 0.0000000000, -7.07923021e-02, 2.79342330e+00, 2.17177456e+00, 5.35478751e+00, 0.00000000e+00, 10.0000000000, 10.0000000000, 0.0027502460
          30, 0.5321677883, 0.0232268400, 0.0021469552, 47142.0559879621, 0.5856238698, -0.6076317795, 3.8844715021, -0.6076317795, 3.8844715021, 575.7607836660, 831.9368675390, 0.1988909991, 1.2658446734, 0.0000000000, 0.0000000000, -1.99580034e-01, 2.79987741e+00, 2.09869289e+00, 5.24031103e+00, 0.00000000e+00, 10.0000000000, 10.0000000000, 0.0028397891
          31, 0.5233390434, 0.0221885727, 0.0021010254, 46388.7014612521, 0.5910714950, -0.5348686937, 3.8617730466, -0.5348686937, 3.8617730466, 607.3965501322, 833.5041629974, 0.2104563122, 1.2819273117, 0.0000000000, 0.0000000000, -2.98860241e-01, 2.80560165e+00, 1.99189584e+00, 5.22008174e+00, 0.00000000e+00, 10.0000000000, 10.0000000000, 0.0029394463
          32, 0.5120595135, 0.0209228448, 0.0020352618, 45374.0703904838, 0.5985184708, -0.4568735082, 3.8757937973, -0.4568735082, 3.8757937973, 639.4621568846, 836.5214290192, 0.2222673846, 1.3002250127, 0.0000000000, 0.0000000000, -3.17898954e-01, 2.80639194e+00, 1.90279566e+00, 5.27077017e+00, 0.00000000e+00, 10.0000000000, 10.0000000000, 0.0030341444
          33, 0.4977905208, 0.0193678642, 0.0019413008, 44047.8767407096, 0.6084280513, -0.3869411449, 3.9426314160, -0.3869411449, 3.9426314160, 671.8898890364, 841.2092993889, 0.2343259694, 1.3210072702, 0.0000000000, 0.0000000000, -3.28686324e-01, 2.79895371e+00, 1.84197116e+00, 5.29668409e+00, 0.00000000e+00, 10.0000000000, 10.0000000000, 0.0031291194
          34, 0.4796624346, 0.0176229917, 0.0018262879, 42307.3585969136, 0.6215638180, -0.3397217095, 4.0579793253, -0.3397217095, 4.0579793253, 704.6343407402, 848.1081962192, 0.2466309254, 1.3445437480, 0.0000000000, 0.0000000000, -3.33401163e-01, 2.78465937e+00, 1.83705465e+00, 5.31086046e+00, 0.00000000e+00, 10.0000000000, 10.0000000000, 0.0032225464
          35, 0.4562439388, 0.0159245246, 0.0017124544, 39972.6053787244, 0.6392059875, -0.3226681541, 4.2027110249, -0.3226681541, 4.2027110249, 737.5332006115, 858.3368375073, 0.2591216448, 1.3709622730, 0.0000000000, 0.0000000000, -3.01933172e-01, 2.76820306e+00, 1.89975093e+00, 5.34028514e+00, 0.00000000e+00, 10.0000000000, 10.0000000000, 0.0033126960
          36, 0.4258403762, 0.0144678543, 0.0016193929, 36852.5809298292, 0.6628835068, -0.3314086764, 4.3575176866, -0.3314086764, 4.3575176866, 770.2529526305, 873.3904664400, 0.2716592105, 1.3998465824, 0.0000000000, 0.0000000000, -2.49802067e-01, 2.75320208e+00, 1.97504785e+00, 5.38066162e+00, 0.00000000e+00, 10.0000000000, 10.0000000000, 0.0034066182
          37, 0.3874647101, 0.0133295629, 0.0015545711, 32881.8060046079, 0.6934854230, -0.3528720428, 4.5125109086, -0.3528720428, 4.5125109086, 802.3178132296, 894.3611694684, 0.2840396190, 1.4298136718, 0.0000000000, 0.0000000000, -1.97984883e-01, 2.73877511e+00, 2.04669360e+00, 5.41963518e+00, 0.00000000e+00, 10.0000000000, 10.0000000000, 0.0035094502
          38, 0.3419361226, 0.0124259936, 0.0015061072, 28240.6056369863, 0.7302923710, -0.3739037298, 4.6667887778, -0.3739037298, 4.6667887778, 833.1970439661, 921.2023083226, 0.2960357161, 1.4583507445, 0.0000000000, 0.0000000000, -1.53998869e-01, 2.72237327e+00, 2.10900361e+00, 5.45029963e+00, 0.00000000e+00, 10.0000000000, 10.0000000000, 0.0036007106
          39, 0.2922877115, 0.0116105742, 0.0014526651, 23343.1208786260, 0.7706555725, -0.3870944224, 4.8209573040, -0.3870944224, 4.8209573040, 862.4108266890, 952.5201818141, 0.3074476024, 1.4823657875, 0.0000000000, 0.0000000000, -1.24892465e-01, 2.70018352e+00, 2.15578637e+00, 5.46688275e+00, 0.00000000e+00, 10.0000000000, 10.0000000000, 0.0037000308
          40, 0.2465627080, 0.0107358016, 0.0013717562, 19039.6848954290, 0.8077860378, -0.3896688535, 4.9600563602, -0.3896688535, 4.9600563602, 888.6202893284, 983.6053385325, 0.3176050910, 1.4988013647, 0.0000000000, 0.0000000000, -1.14869423e-01, 2.66946249e+00, 2.18201903e+00, 5.46629690e+00, 0.00000000e+00, 10.0000000000, 10.0000000000, 0.0037983100
          41, 0.2033171095, 0.0099471616, 0.0012866777, 15124.8739280852, 0.8427714489, -0.3882716073, 5.0802448189, -0.3882716073, 5.0802448189, 912.4969647540, 1015.2095125263, 0.3269501504, 1.5087388873, 0.0000000000, 0.0000000000, -1.37314828e-01, 2.62649121e+00, 2.15842415e+00, 5.43884842e+00, 0.00000000e+00, 10.0000000000, 10.0000000000, 0.0038933050
          42, 0.2012593384, 0.0097985114, 0.0012697076, 14980.0438739429, 0.8443501516, -0.3852760792, 5.1027180438, -0.3852760792, 5.1027180438, 921.3563666254, 1018.7322152289, 0.3295569966, 1.5102184034, 0.0000000000, 0.0000000000, -1.50898583e-01, 2.58414262e+00, 2.16337172e+00, 5.41751209e+00, 0.00000000e+00, 7.0000000000, 10.0000000000, 0.0039745514
          43, 0.1985278716, 0.0096762352, 0.0012559148, 14766.2492372692, 0.8464883947, -0.3821697878, 5.1232062817, -0.3821697878, 5.1232062817, 929.3521765909, 1022.5308808113, 0.3319455300, 1.5115655154, 0.0000000000, 0.0000000000, -2.15888230e-01, 2.55133671e+00, 2.01315400e+00, 5.36173848e+00, 0.00000000e+00, 7.0000000000, 10.0000000000, 0.0040578975
          44, 0.1948834185, 0.0095667689, 0.0012435247, 14463.1656635238, 0.8493797710, -0.3801011428, 5.1401581537, -0.3801011428, 5.1401581537, 936.0603541514, 1026.6299913709, 0.3340146518, 1.5127718627, 0.0000000000, 0.0000000000, -2.66602752e-01, 2.52535994e+00, 1.88537560e+00, 5.31793130e+00, 0.00000000e+00, 7.0000000000, 10.0000000000, 0.0041410488
          45, 0.1901959287, 0.0094509431, 0.0012300185, 14062.6766869905, 0.8531263541, -0.3788051618, 5.1520955073, -0.3788051618, 5.1520955073, 941.3888226477, 1031.0779787819, 0.3357541893, 1.5138321988, 0.0000000000, 0.0000000000, -3.00366266e-01, 2.50573977e+00, 1.77488120e+00, 5.28764737e+00, 0.00000000e+00, 8.0000000000, 10.0000000000, 0.0042318909
          46, 0.1844862792, 0.0093250946, 0.0012148880, 13569.2261077914, 0.8577061374, -0.3784044370, 5.1577800291, -0.3784044370, 5.1577800291, 945.5393478038, 1035.9298387639, 0.3372239871, 1.5147272109, 0.0000000000, 0.0000000000, -3.18910033e-01, 2.49120106e+00, 1.67650382e+00, 5.26948053e+00, 0.00000000e+00, 8.0000000000, 10.0000000000, 0.0043139879
          47, 0.1778963721, 0.0092005617, 0.0011995614, 12996.4243878929, 0.8629993764, -0.3791977545, 5.1566994291, -0.3791977545, 5.1566994291, 948.9074245018, 1041.2412815803, 0.3385285588, 1.5154102392, 0.0000000000, 0.0000000000, -3.29634173e-01, 2.47935080e+00, 1.60428040e+00, 5.25790288e+00, 0.00000000e+00, 9.0000000000, 10.0000000000, 0.0044074823
          48, 0.1706021434, 0.0090900098, 0.0011856512, 12360.6573529070, 0.8688586424, -0.3812857772, 5.1498692541, -0.3812857772, 5.1498692541, 951.9185067186, 1047.0557097902, 0.3397775799, 1.5158354149, 0.0000000000, 0.0000000000, -3.35433152e-01, 2.46911403e+00, 1.58106500e+00, 5.25056108e+00, 0.00000000e+00, 9.0000000000, 10.0000000000, 0.0044993649
          49, 0.1627567829, 0.0089930544, 0.0011730567, 11677.8064206264, 0.8751552992, -0.3841379306, 5.1397126534, -0.3841379306, 5.1397126534, 954.9103074652, 1053.4034421312, 0.3410574775, 1.5159600586, 0.0000000000, 0.0000000000, -3.35019205e-01, 2.46045029e+00, 1.58936357e+00, 5.24813537e+00, 0.00000000e+00, 10.0000000000, 10.0000000000, 0.0045737401
          50, 0.1544725380, 0.0089044359, 0.0011610548, 10960.3310938911, 0.8817935715, -0.3869410303, 5.1293851507, -0.3869410303, 5.1293851507, 958.0690124719, 1060.2852002385, 0.3424140045, 1.5157552235, 0.0000000000, 0.0000000000, -3.29280955e-01, 2.45276604e+00, 1.61059384e+00, 5.24977990e+00, 0.00000000e+00, 10.0000000000, 10.0000000000, 0.0046347138
          51, 0.1458176295, 0.0088122374, 0.0011480729, 10217.4677496077, 0.8887125202, -0.3892635188, 5.1221261606, -0.3892635188, 5.1221261606, 961.4567735525, 1067.6782254659, 0.3438611159, 1.5152098183, 0.0000000000, 0.0000000000, -3.22535829e-01, 2.44450933e+00, 1.63707210e+00, 5.25208230e+00, 0.00000000e+00, 10.0000000000, 10.0000000000, 0.0046972371
          52, 0.1368277646, 0.0087083214, 0.0011330678, 9454.8135581235, 0.8958765600, -0.3910465538, 5.1209013206, -0.3910465538, 5.1209013206, 965.0669286976, 1075.5442477634, 0.3453960153, 1.5143296425, 0.0000000000, 0.0000000000, -3.18213343e-01, 2.43433248e+00, 1.66467642e+00, 5.25226807e+00, 0.00000000e+00, 10.0000000000, 10.0000000000, 0.0047591706
          53, 0.1275319413, 0.0085804160, 0.0011144980, 8677.9991666148, 0.9032545307, -0.3924692479, 5.1286752052, -0.3924692479, 5.1286752052, 968.8701455958, 1083.8275576683, 0.3470094007, 1.5131444348, 0.0000000000, 0.0000000000, -3.15708013e-01, 2.42238353e+00, 1.68922817e+00, 5.25089388e+00, 0.00000000e+00, 10.0000000000, 10.0000000000, 0.0048206849
          54, 0.1180096555, 0.0084095979, 0.0010899949, 7897.8835666016, 0.9107755478, -0.3937462477, 5.1484749969, -0.3937462477, 5.1484749969, 972.8347810607, 1092.4248297586, 0.3486893562, 1.5117027663, 0.0000000000, 0.0000000000, -3.14119884e-01, 2.40915277e+00, 1.71562281e+00, 5.24886207e+00, 0.00000000e+00, 10.0000000000, 10.0000000000, 0.0049112046
          55, 0.1084299387, 0.0081653175, 0.0010557195, 7134.2559354817, 0.9183004942, -0.3948144113, 5.1821818957, -0.3948144113, 5.1821818957, 976.9282848725, 1101.1621319127, 0.3504218301, 1.5100671566, 0.0000000000, 0.0000000000, -3.15765805e-01, 2.39379543e+00, 1.74566791e+00, 5.24433626e+00, 0.00000000e+00, 10.0000000000, 10.0000000000, 0.0049972757
          56, 0.0990260432, 0.0078215918, 0.0010084823, 6410.6527275246, 0.9256444455, -0.3955081239, 5.2278395232, -0.3955081239, 5.2278395232, 981.1122931752, 1109.8226315027, 0.3521896638, 1.5083030081, 0.0000000000, 0.0000000000, -3.25021929e-01, 2.37428761e+00, 1.77085889e+00, 5.23358253e+00, 0.00000000e+00, 10.0000000000, 10.0000000000, 0.0050588071
          57, 0.0899756346, 0.0073905871, 0.0009500783, 5738.9926288252, 0.9326705644, -0.3956724082, 5.2782014601, -0.3956724082, 5.2782014601, 985.3480022326, 1118.2410882676, 0.3539766544, 1.5064653313, 0.0000000000, 0.0000000000, -3.43723126e-01, 2.34953424e+00, 1.78207493e+00, 5.21488385e+00, 0.00000000e+00, 10.0000000000, 10.0000000000, 0.0051290521
          58, 0.0812552498, 0.0069324374, 0.0008884535, 5106.7451812415, 0.9393998402, -0.3953275800, 5.3228873296, -0.3953275800, 5.3228873296, 989.6050176999, 1126.4180366572, 0.3557714885, 1.5045870351, 0.0000000000, 0.0000000000, -3.67185587e-01, 2.32134360e+00, 1.78009950e+00, 5.19198952e+00, 0.00000000e+00, 10.0000000000, 10.0000000000, 0.0051984041
          59, 0.0725872481, 0.0065072617, 0.0008314140, 4481.4124431678, 0.9460463346, -0.3949220457, 5.3531497158, -0.3949220457, 5.3531497158, 993.8642873260, 1134.5579784052, 0.3575688132, 1.5026833931, 0.0000000000, 0.0000000000, -3.86803772e-01, 2.29362740e+00, 1.77767765e+00, 5.17187263e+00, 0.00000000e+00, 10.0000000000, 10.0000000000, 0.0052622134
          60, 0.0635433670, 0.0061292488, 0.0007807585, 3827.0340153313, 0.9529328893, -0.3949431170, 5.3660434241, -0.3949431170, 5.3660434241, 998.1213186684, 1142.9763541726, 0.3593695392, 1.5007725964, 0.0000000000, 0.0000000000, -3.97371642e-01, 2.26909239e+00, 1.78776545e+00, 5.15892317e+00, 0.00000000e+00, 10.0000000000, 10.0000000000, 0.0053254478
          61, 0.0537714488, 0.0057694252, 0.0007327290, 3121.8816706580, 0.9603179368, -0.3956089292, 5.3642770700, -0.3956089292, 5.3642770700, 1002.3779597786, 1151.9332735198, 0.3611751189, 1.4988658003, 0.0000000000, 0.0000000000, -4.00939255e-01, 2.24763868e+00, 1.80859596e+00, 5.15175570e+00, 0.00000000e+00, 10.0000000000, 10.0000000000, 0.0053876068
          62, 0.0432333926, 0.0053852972, 0.0006818628, 2371.6409724087, 0.9682198628, -0.3967374016, 5.3528096144, -0.3967374016, 5.3528096144, 1006.6257419857, 1161.4700037468, 0.3629801708, 1.4969404421, 0.0000000000, 0.0000000000, -4.04791384e-01, 2.22626624e+00, 1.82910417e+00, 5.14402310e+00, 0.00000000e+00, 10.0000000000, 10.0000000000, 0.0054477944
          63, 0.0323310931, 0.0049522544, 0.0006250040, 1612.5135836911, 0.9763310235, -0.3978749645, 5.3358224827, -0.3978749645, 5.3358224827, 1010.8351537994, 1171.3319029174, 0.3647685265, 1.4949177595, 0.0000000000, 0.0000000000, -4.15563524e-01, 2.20078058e+00, 1.84094531e+00, 5.12945456e+00, 0.00000000e+00, 10.0000000000, 10.0000000000, 0.0055093524
          64, 0.0218442303, 0.0044700282, 0.0005621164, 903.4490390816, 0.9840738407, -0.3985749064, 5.3158139469, -0.3985749064, 5.3158139469, 1014.9569828104, 1181.0155373696, 0.3665152212, 1.4926737746, 0.0000000000, 0.0000000000, -4.35169634e-01, 2.16879628e+00, 1.84261912e+00, 5.10615022e+00, 0.00000000e+00, 10.0000000000, 10.0000000000, 0.0055719513
          65, 0.0126450932, 0.0039504375, 0.0004947497, 305.4833349077, 0.9908170447, -0.3986984418, 5.2939217390, -0.3986984418, 5.2939217390, 1018.9314012710, 1189.9453755177, 0.3681919713, 1.4901034726, 0.0000000000, 0.0000000000, -4.62078117e-01, 2.13130183e+00, 1.83708379e+00, 5.07596404e+00, 0.00000000e+00, 10.0000000000, 10.0000000000, 0.0056328591
          66, 0.0053207621, 0.0034138497, 0.0004255961, -145.0779197896, 0.9961500404, -0.3984988374, 5.2702016060, -0.3984988374, 5.2702016060, 1022.6994468752, 1197.7050514195, 0.3697727430, 1.4871904678, 0.0000000000, 0.0000000000, -4.92187036e-01, 2.09306527e+00, 1.82909620e+00, 5.04387961e+00, 0.00000000e+00, 10.0000000000, 10.0000000000, 0.0057335715
          67, -0.0000636113, 0.0028940332, 0.0003590314, -452.7508175368, 1.0000458780, -0.3982660141, 5.2440615289, -0.3982660141, 5.2440615289, 1026.2115119744, 1204.1849640554, 0.3712371565, 1.4840325140, 0.0000000000, 0.0000000000, -5.20209061e-01, 2.05909720e+00, 1.82309737e+00, 5.01591972e+00, 0.00000000e+00, 10.0000000000, 10.0000000000, 0.0058150903
          68, -0.0038989869, 0.0024284771, 0.0002997934, -654.6982623003, 1.0028039603, -0.3982406820, 5.2152279656, -0.3982406820, 5.2152279656, 1029.4278993790, 1209.5556908265, 0.3725695111, 1.4808029054, 0.0000000000, 0.0000000000, -5.42590906e-01, 2.03169482e+00, 1.82249385e+00, 4.99547562e+00, 0.00000000e+00, 10.0000000000, 10.0000000000, 0.0058768750
          69, -0.0067384388, 0.0020354729, 0.0002500994, -795.2916548777, 1.0048335858, -0.3985351734, 5.1845518393, -0.3985351734, 5.1845518393, 1032.3158781147, 1214.1000434033, 0.3737567676, 1.4776840894, 0.0000000000, 0.0000000000, -5.57387562e-01, 2.01137772e+00, 1.82727644e+00, 4.98361205e+00, 0.00000000e+00, 10.0000000000, 10.0000000000, 0.0059481781
          70, -0.0090020310, 0.0017492076, 0.0002140683, -910.8085154105, 1.0064433236, -0.3989877541, 5.1539299362, -0.3989877541, 5.1539299362, 1034.7754240714, 1217.9371910413, 0.3747440304, 1.4749922360, 0.0000000000, 0.0000000000, -5.66206811e-01, 1.99687811e+00, 1.83565545e+00, 4.97768367e+00, 0.00000000e+00, 10.0000000000, 10.0000000000, 0.0060153391
          71, -0.0110203412, 0.0015334878, 0.0001870022, -1019.3634778251, 1.0078725406, -0.3997268421, 5.1259797170, -0.3997268421, 5.1259797170, 1036.8650789019, 1221.3701080733, 0.3755774033, 1.4725658457, 0.0000000000, 0.0000000000, -5.91850770e-01, 1.96676239e+00, 1.81407462e+00, 4.95306063e+00, 0.00000000e+00, 10.0000000000, 10.0000000000, 0.0060806383
          72, -0.0127463142, 0.0013393216, 0.0001628149, -1110.2991424065, 1.0090899691, -0.4005851329, 5.1031640734, -0.4005851329, 5.1031640734, 1038.5851099120, 1224.3581409152, 0.3762532535, 1.4704417757, 0.0000000000, 0.0000000000, -5.89824906e-01, 1.95941880e+00, 1.83062258e+00, 4.95663503e+00, 0.00000000e+00, 10.0000000000, 10.0000000000, 0.0061426014
          73, -0.0141313271, 0.0011979694, 0.0001452448, -1185.1278258068, 1.0100631145, -0.4013756736, 5.0845406895, -0.4013756736, 5.0845406895, 1039.9318594729, 1226.8710512155, 0.3767668429, 1.4686156017, 0.0000000000, 0.0000000000, -5.92724623e-01, 1.94943223e+00, 1.84213343e+00, 4.95525247e+00, 0.00000000e+00, 10.0000000000, 10.0000000000, 0.0062044796
          74, -0.0151953306, 0.0010973686, 0.0001327557, -1243.5755299026, 1.0108079974, -0.4021272935, 5.0704076896, -0.4021272935, 5.0704076896, 1040.8998518437, 1228.9252462297, 0.3771150119, 1.4670930744, 0.0000000000, 0.0000000000, -5.94759956e-01, 1.94022946e+00, 1.85259237e+00, 4.95428802e+00, 0.00000000e+00, 10.0000000000, 10.0000000000, 0.0062651546
          75, -0.0159493288, 0.0010164296, 0.0001227474, -1283.3386063790, 1.0113338207, -0.4028382982, 5.0608205208, -0.4028382982, 5.0608205208, 1041.4870416235, 1230.5352010190, 0.3772971599, 1.4658728430, 0.0000000000, 0.0000000000, -5.95561857e-01, 1.92965583e+00, 1.86320866e+00, 4.95409065e+00, 0.00000000e+00, 10.0000000000, 10.0000000000, 0.0063264615
          76, -0.0163949064, 0.0009529146, 0.0001149218, -1304.2727115468, 1.0116426506, -0.4034843002, 5.0548528083, -0.4034843002, 5.0548528083, 1041.6941491292, 1231.7133166252, 0.3773141571, 1.4649404365, 0.0000000000, 0.0000000000, -5.96436980e-01, 1.91800095e+00, 1.87353069e+00, 4.95322108e+00, 0.00000000e+00, 10.0000000000, 10.0000000000, 0.0064220033
          77, -0.0164146105, 0.0009677987, 0.0001166959, -1307.7982014689, 1.0116555935, -0.4040229652, 5.0533002094, -0.4040229652, 5.0533002094, 1041.7665751498, 1231.8747010730, 0.3773268434, 1.4647956225, 0.0000000000, 0.0000000000, -5.98168777e-01, 1.90404834e+00, 1.88196255e+00, 4.95058343e+00, 0.00000000e+00, 10.0000000000, 10.0000000000, 0.0065071442
          78, -0.0165028415, 0.0009687674, 0.0001167934, -1314.0424219805, 1.0117171145, -0.4046723114, 5.0513376487, -0.4046723114, 5.0513376487, 1041.7970066142, 1232.0631585035, 0.3773259983, 1.4646734833, 0.0000000000, 0.0000000000, -8.14313992e-01, 1.66124919e+00, 1.60962409e+00, 4.71009583e+00, 0.00000000e+00, 10.0000000000, 10.0000000000, 0.0066148061
          79, -0.0167173872, 0.0009641346, 0.0001162187, -1328.3171000784, 1.0118680433, -0.4053844296, 5.0485299306, -0.4053844296, 5.0485299306, 1041.7870801885, 1232.3194163498, 0.3773119786, 1.4645762263, 0.0000000000, 0.0000000000, -9.05408288e-01, 1.47152519e+00, 1.38886921e+00, 4.58083859e+00, 0.00000000e+00, 10.0000000000, 10.0000000000, 0.0066848539
          80, -0.0171580922, 0.0009614250, 0.0001158817, -1358.7629376285, 1.0121789264, -0.4060782174, 5.0447113923, -0.4060782174, 5.0447113923, 1041.7419951198, 1232.7133498322, 0.3772856185, 1.4645126925, 0.0000000000, 0.0000000000, -9.12627839e-01, 1.39860556e+00, 1.25772569e+00, 4.55963011e+00, 0.00000000e+00, 10.0000000000, 10.0000000000, 0.0067518376
          81, -0.0179338218, 0.0009632207, 0.0001160955, -1413.3871575885, 1.0127265933, -0.4066857472, 5.0403980562, -0.4066857472, 5.0403980562, 1041.6661993153, 1233.3198469324, 0.3772472768, 1.4644945995, 0.0000000000, 0.0000000000, -8.99278878e-01, 1.40774727e+00, 1.23893792e+00, 4.57284037e+00, 0.00000000e+00, 10.0000000000, 10.0000000000, 0.0068172596