TITLE = "SU2 Simulation"
VARIABLES = "Iteration","Buffet_Metric","TotalPressureLoss_1","KineticEnergyLoss_1","EntropyGen_1","EulerianWork_1","PressureRatio_1","FlowAngleIn_1","FlowAngleOut_1","AbsFlowAngleIn_1","AbsFlowAngleOut_1","MassFlowIn_1","MassFlowOut_1","MachIn_1","MachOut_1","TotalEfficiency_1","TotalStaticEfficiency_1","Res_Flow[0]","Res_Flow[1]","Res_Flow[2]","Res_Flow[3]","Res_Flow[4]","Linear_Solver_Iterations","CFL_Number","Time(min)"
ZONE T= "Convergence history"
           0, 0.9330086214, 0.8935013973, 0.0118416116, 6472.8769643696, 0.8081790412, -1.3108150170, 3.1959809824, -1.3108150170, 3.1959809824, 0.0000030144, 410.0810848803, 0.0000000010, 0.1568949172, 0.0000000000, 0.0000000000, 7.74848483e-01, 2.66504120e+00, 3.06606244e+00, 6.22494883e+00, 0.00000000e+00, 10.0000000000, 10.0000000000, 0.0005195921
           1, 0.8823447697, 0.7234096566, 0.0150237759, 21171.4335750017, 0.6665106179, -4.6068500740, 3.1201786816, -4.6068500740, 3.1201786816, 0.0000055821, 665.2073198724, 0.0000000019, 0.3156269813, 0.0000000000, 0.0000000000, 5.54559677e-01, 2.42878239e+00, 2.85223825e+00, 5.99602155e+00, 0.00000000e+00, 10.0000000000, 10.0000000000, 0.0010335776
           2, 0.8426717189, 0.4880804113, 0.0122468928, 38985.7683853610, 0.5677802485, -7.1862855442, 3.4745179947, -7.1862855442, 3.4745179947, 0.0000524164, 812.3173791906, 0.0000000176, 0.4731421629, 0.0000000000, 0.0000000000, 3.31100238e-01, 2.22989886e+00, 2.68889325e+00, 5.80312190e+00, 0.00000000e+00, 10.0000000000, 10.0000000000, 0.0015445971
           3, 0.8172602251, 0.3069165965, 0.0093553551, 52683.6458168331, 0.5027726492, -7.9823495469, 4.2429510697, -7.9823495469, 4.2429510697, 0.0005743755, 869.9493874503, 0.0000001929, 0.6083413863, 0.0000000000, 0.0000000000, 2.00856481e-01, 2.09233277e+00, 2.58201380e+00, 5.69333629e+00, 0.00000000e+00, 10.0000000000, 10.0000000000, 0.0020501053
           4, 0.8077617885, 0.2280112848, 0.0085038805, 62064.0803824284, 0.4542045687, -8.5986632458, 5.5514327027, -8.5986632458, 5.5514327027, 0.0046970698, 864.3246142106, 0.0000015802, 0.7107193021, 0.0000000000, 0.0000000000, 1.93162041e-01, 1.99431286e+00, 2.54040172e+00, 5.66130132e+00, 0.00000000e+00, 10.0000000000, 10.0000000000, 0.0025533582
           5, 0.8100957248, 0.1907395838, 0.0083665545, 70450.8187730756, 0.4102628851, -9.1420952725, 7.4296673051, -9.1420952725, 7.4296673051, 0.0293169927, 822.6495882728, 0.0000098779, 0.7892455343, 0.0000000000, 0.0000000000, 2.15552481e-01, 1.93401970e+00, 2.46729909e+00, 5.69063638e+00, 0.00000000e+00, 10.0000000000, 10.0000000000, 0.0030588483
           6, 0.8205781565, 0.1691775423, 0.0084101746, 79194.0677302240, 0.3668766268, -9.5868395567, 9.8431364628, -9.5868395567, 9.8431364628, 0.1450827793, 759.0514488641, 0.0000489477, 0.8513018062, 0.0000000000, 0.0000000000, 2.56864179e-01, 1.94034932e+00, 2.44575971e+00, 5.73828382e+00, 0.00000000e+00, 10.0000000000, 10.0000000000, 0.0035642898
           7, 0.8372371823, 0.1572606249, 0.0086171476, 88832.1535515037, 0.3223223827, -9.8987463999, 12.6379851178, -9.8987463999, 12.6379851178, 0.5859479459, 680.0429997479, 0.0001978971, 0.8999887038, 0.0000000000, 0.0000000000, 2.94984784e-01, 1.98930996e+00, 2.46743935e+00, 5.77284783e+00, 0.00000000e+00, 10.0000000000, 10.0000000000, 0.0040698969
           8, 0.8584058236, 0.1541363779, 0.0091108760, 99587.7629441372, 0.2764449194, -10.0429816000, 15.5788509913, -10.0429816000, 15.5788509913, 1.9742890966, 590.9143389379, 0.0006673485, 0.9360657725, 0.0000000000, 0.0000000000, 3.06480307e-01, 2.03081063e+00, 2.49940072e+00, 5.77098383e+00, 0.00000000e+00, 10.0000000000, 10.0000000000, 0.0045743018
           9, 0.8809234044, 0.1615908762, 0.0100936833, 110663.3989085529, 0.2329620946, -9.9893144923, 18.3950515307, -9.9893144923, 18.3950515307, 5.6485163455, 502.3217259845, 0.0019107935, 0.9571834332, 0.0000000000, 0.0000000000, 2.83144918e-01, 2.04420933e+00, 2.52117647e+00, 5.72927353e+00, 0.00000000e+00, 10.0000000000, 10.0000000000, 0.0050793463
          10, 0.9025437436, 0.1799417846, 0.0115202416, 121196.0353983344, 0.1952496379, -9.7199172539, 21.0185033819, -9.7199172539, 21.0185033819, 13.9301520125, 422.8555105975, 0.0047174662, 0.9571713401, 0.0000000000, 0.0000000000, 2.31936428e-01, 2.03066437e+00, 2.48186375e+00, 5.65795165e+00, 0.00000000e+00, 10.0000000000, 10.0000000000, 0.0055863393
          11, 0.9234771475, 0.2147211301, 0.0133419868, 130735.9324417884, 0.1640222872, -9.2260074992, 23.7594931662, -9.2260074992, 23.7594931662, 30.0148455973, 353.4160678788, 0.0101831205, 0.9212722803, 0.0000000000, 0.0000000000, 1.72383741e-01, 2.00099586e+00, 2.43235643e+00, 5.57855173e+00, 0.00000000e+00, 10.0000000000, 10.0000000000, 0.0060934349
          12, 0.9442430359, 0.2808871098, 0.0154295047, 138500.1905603239, 0.1403073189, -8.5185461847, 27.3595673144, -8.5185461847, 27.3595673144, 57.2342718767, 291.0086355930, 0.0194727874, 0.8273920452, 0.0000000000, 0.0000000000, 1.07350568e-01, 2.00283435e+00, 2.37403671e+00, 5.49445989e+00, 0.00000000e+00, 10.0000000000, 10.0000000000, 0.0066422849
          13, 0.9643261705, 0.4033401979, 0.0171561128, 143000.5835008741, 0.1267416385, -7.6282289601, 33.5267561973, -7.6282289601, 33.5267561973, 97.8100550705, 226.8525985114, 0.0334027823, 0.6621836872, 0.0000000000, 0.0000000000, 3.72767799e-02, 1.94853207e+00, 2.30824360e+00, 5.40467595e+00, 0.00000000e+00, 10.0000000000, 10.0000000000, 0.0071410841
          14, 0.9806816049, 0.5930703004, 0.0186478388, 143311.9442451013, 0.1232099928, -6.5965688522, 43.7539513632, -6.5965688522, 43.7539513632, 151.6758064521, 152.5649713488, 0.0520161517, 0.4695603814, 0.0000000000, 0.0000000000, -3.11070371e-02, 1.94205250e+00, 2.24496487e+00, 5.31636660e+00, 0.00000000e+00, 10.0000000000, 10.0000000000, 0.0076436218
          15, 0.9909823465, 0.8039372863, 0.0237208593, 140541.6302558093, 0.1208547099, -5.4644391300, 56.9478777021, -5.4644391300, 56.9478777021, 216.0185820209, 80.3286629902, 0.0743752556, 0.3143292926, 0.0000000000, 0.0000000000, -9.10187051e-02, 2.03070744e+00, 2.19569025e+00, 5.24654309e+00, 0.00000000e+00, 10.0000000000, 10.0000000000, 0.0081447181
          16, 0.9960008735, 0.9231144926, 0.0318760094, 136965.9732826513, 0.1157564202, -4.2872171700, 72.0942843165, -4.2872171700, 72.0942843165, 285.8140702286, 29.8025187145, 0.0987078883, 0.2114256280, 0.0000000000, 0.0000000000, -1.58910536e-01, 2.08699666e+00, 2.13701103e+00, 5.18623483e+00, 0.00000000e+00, 10.0000000000, 10.0000000000, 0.0086573453
          17, 0.9981656671, 0.9669773344, 0.0364453757, 134972.2951491957, 0.1130544282, -3.1434480892, -82.4409554123, -3.1434480892, -82.4409554123, 355.1002007486, -8.5753024568, 0.1228519658, 0.1441846145, 0.0000000000, 0.0000000000, -2.09097845e-01, 2.09480957e+00, 2.08811208e+00, 5.13236089e+00, 0.00000000e+00, 10.0000000000, 10.0000000000, 0.0091634738
          18, 0.9985442770, 0.9745607028, 0.0382740574, 134262.5239527578, 0.1120079009, -2.1395466024, -50.9947390677, -2.1395466024, -50.9947390677, 418.3231333088, -36.4709091456, 0.1447591754, 0.1289759013, 0.0000000000, 0.0000000000, -2.47920801e-01, 2.09166429e+00, 2.09724420e+00, 5.09894043e+00, 0.00000000e+00, 10.0000000000, 10.0000000000, 0.0096709507
          19, 0.9984422825, 0.9735429656, 0.0402147549, 133939.1931901283, 0.1102433431, -1.3886711259, -35.0882045302, -1.3886711259, -35.0882045302, 471.1496676338, -48.8351163596, 0.1628161621, 0.1346668948, 0.0000000000, 0.0000000000, -2.73550288e-01, 2.07946283e+00, 2.11802172e+00, 5.09248272e+00, 0.00000000e+00, 10.0000000000, 10.0000000000, 0.0101774574
          20, 0.9986601524, 0.9784132829, 0.0433898502, 132507.7537783981, 0.1088801654, -0.9412731458, -29.7818583491, -0.9412731458, -29.7818583491, 510.8206572184, -47.8912058166, 0.1760028962, 0.1256908861, 0.0000000000, 0.0000000000, -3.49971338e-01, 2.06079158e+00, 2.13631472e+00, 5.05105959e+00, 0.00000000e+00, 10.0000000000, 10.0000000000, 0.0106855094
          21, 0.9991858386, 0.9878578520, 0.0471183681, 129453.7272953150, 0.1096121944, -0.7412479716, -28.2878114633, -0.7412479716, -28.2878114633, 536.0929511779, -38.0053541177, 0.1839157273, 0.0974473259, 0.0000000000, 0.0000000000, -3.81828107e-01, 2.08905804e+00, 2.13177262e+00, 5.04709355e+00, 0.00000000e+00, 10.0000000000, 10.0000000000, 0.0111937628
          22, 0.9997316893, 0.9963599281, 0.0505113839, 124975.7452430351, 0.1131862264, -0.6892907966, -27.2703057812, -0.6892907966, -27.2703057812, 547.1752011090, -22.2742939744, 0.1867476773, 0.0548455624, 0.0000000000, 0.0000000000, -3.88374146e-01, 2.14117778e+00, 2.14825781e+00, 5.05333174e+00, 0.00000000e+00, 10.0000000000, 10.0000000000, 0.0117045837
          23, 0.9999983799, 0.9999800686, 0.0528958343, 119929.8211197359, 0.1191228186, -0.7021429060, 4.7117352046, -0.7021429060, 4.7117352046, 545.5605503134, -1.9735583067, 0.1851774450, 0.0041370455, 0.0000000000, 0.0000000000, -3.38749945e-01, 2.20828865e+00, 2.18462840e+00, 5.09772916e+00, 0.00000000e+00, 10.0000000000, 10.0000000000, 0.0122099685
          24, 0.9997405353, 0.9971055264, 0.0545918947, 114726.9541181300, 0.1264154864, -0.7391964777, -36.1756449871, -0.7391964777, -36.1756449871, 533.6205188387, 20.5832243657, 0.1801791926, 0.0506464916, 0.0000000000, 0.0000000000, -2.91678432e-01, 2.28287659e+00, 2.23161494e+00, 5.15044663e+00, 0.00000000e+00, 10.0000000000, 10.0000000000, 0.0127286122
          25, 0.9987743974, 0.9879516997, 0.0583630634, 107938.4671355873, 0.1334078404, -0.7704845909, -35.9622066843, -0.7704845909, -35.9622066843, 514.2653115624, 45.2449596810, 0.1728639052, 0.1069856325, 0.0000000000, 0.0000000000, -2.72711600e-01, 2.22175394e+00, 2.24108066e+00, 5.15861067e+00, 0.00000000e+00, 10.0000000000, 10.0000000000, 0.0132404841
          26, 0.9967557741, 0.9725803810, 0.0660298942, 99082.1810705545, 0.1375390741, -0.7921194755, -34.1787954910, -0.7921194755, -34.1787954910, 490.7034701056, 74.5471481878, 0.1643887077, 0.1718873157, 0.0000000000, 0.0000000000, -2.51644989e-01, 2.22397973e+00, 2.24349158e+00, 5.18145629e+00, 0.00000000e+00, 10.0000000000, 10.0000000000, 0.0137446924
          27, 0.9944048935, 0.9536055037, 0.0657900786, 98410.4043958285, 0.1392617563, -0.8084327400, -29.0625280311, -0.8084327400, -29.0625280311, 466.3444266151, 103.1703998912, 0.1559312689, 0.2254362535, 0.0000000000, 0.0000000000, -2.45266105e-01, 2.23883166e+00, 2.24413558e+00, 5.18705336e+00, 0.00000000e+00, 10.0000000000, 10.0000000000, 0.0142554214
          28, 0.9918323862, 0.9263162709, 0.0582301940, 104555.8742397501, 0.1403206208, -0.8289659318, -23.9483272395, -0.8289659318, -23.9483272395, 444.5057770869, 131.2451876086, 0.1485887735, 0.2729551329, 0.0000000000, 0.0000000000, -2.68842062e-01, 2.26983730e+00, 2.20239238e+00, 5.18358075e+00, 0.00000000e+00, 10.0000000000, 10.0000000000, 0.0147626591
          29, 0.9889508366, 0.8929626513, 0.0517804401, 109309.9313924290, 0.1418853335, -0.8695707785, -21.3674947113, -0.8695707785, -21.3674947113, 428.0800675680, 156.1740621436, 0.1432812695, 0.3177298201, 0.0000000000, 0.0000000000, -2.95917696e-01, 2.43448246e+00, 2.21701056e+00, 5.34219361e+00, 0.00000000e+00, 10.0000000000, 10.0000000000, 0.0152696486
          30, 0.9862668004, 0.8617769078, 0.0480095547, 111898.3350748010, 0.1429823267, -0.9254080834, -20.5369045506, -0.9254080834, -20.5369045506, 418.9059356814, 174.7344438684, 0.1405566939, 0.3550553345, 0.0000000000, 0.0000000000, -3.04596379e-01, 2.47844522e+00, 2.16061280e+00, 5.36001004e+00, 0.00000000e+00, 10.0000000000, 10.0000000000, 0.0157767809
          31, 0.9845712819, 0.8422582863, 0.0467450764, 113133.0266318824, 0.1424015312, -0.9768620640, -20.3268579813, -0.9768620640, -20.3268579813, 417.2139812371, 184.0821991092, 0.1404075949, 0.3789947499, 0.0000000000, 0.0000000000, -3.06039362e-01, 2.46640514e+00, 2.14068353e+00, 5.36322195e+00, 0.00000000e+00, 10.0000000000, 10.0000000000, 0.0163090473
          32, 0.9844387885, 0.8390873915, 0.0471817608, 113920.8345065675, 0.1397960478, -1.0090737769, -20.1880790605, -1.0090737769, -20.1880790605, 421.5474986066, 183.2080094874, 0.1422547507, 0.3851491586, 0.0000000000, 0.0000000000, -2.98357245e-01, 2.49374741e+00, 2.17802474e+00, 5.37121332e+00, 0.00000000e+00, 10.0000000000, 10.0000000000, 0.0168668939
          33, 0.9856188925, 0.8476172760, 0.0478381208, 115137.5094189359, 0.1360620162, -1.0224644306, -20.4568861167, -1.0224644306, -20.4568861167, 429.3215847552, 174.4360415686, 0.1451504100, 0.3752828924, 0.0000000000, 0.0000000000, -2.61420439e-01, 2.55604190e+00, 2.12384883e+00, 5.39199167e+00, 0.00000000e+00, 10.0000000000, 10.0000000000, 0.0173691644
          34, 0.9873705892, 0.8620828853, 0.0482720998, 116475.4458484187, 0.1326257603, -1.0200108670, -21.8719229930, -1.0200108670, -21.8719229930, 437.7218346972, 161.3080068320, 0.1481030280, 0.3554866957, 0.0000000000, 0.0000000000, -2.66443551e-01, 2.50595235e+00, 2.11956134e+00, 5.25497897e+00, 0.00000000e+00, 10.0000000000, 10.0000000000, 0.0178752023
          35, 0.9888801055, 0.8763453487, 0.0485868113, 117129.9963077678, 0.1308636084, -1.0102437027, -24.3072965507, -1.0102437027, -24.3072965507, 444.4790432750, 148.7650292468, 0.1503497634, 0.3348491887, 0.0000000000, 0.0000000000, -2.47165856e-01, 2.55619113e+00, 2.12950976e+00, 5.38999852e+00, 0.00000000e+00, 10.0000000000, 10.0000000000, 0.0183790392
          36, 0.9898912019, 0.8872385170, 0.0488743081, 117037.8700777474, 0.1306583888, -1.0025758015, -26.5744305227, -1.0025758015, -26.5744305227, 448.5877158905, 139.6848659497, 0.1516113700, 0.3186507884, 0.0000000000, 0.0000000000, -2.27700236e-01, 2.55039590e+00, 2.14146616e+00, 5.28055302e+00, 0.00000000e+00, 10.0000000000, 10.0000000000, 0.0188874609
          37, 0.9903233477, 0.8924725992, 0.0488969226, 116671.3835885611, 0.1314061825, -1.0025270693, -27.3074932675, -1.0025270693, -27.3074932675, 450.3252434508, 136.3402429462, 0.1520859679, 0.3103193732, 0.0000000000, 0.0000000000, -2.18754588e-01, 2.55681487e+00, 2.15411223e+00, 5.38157649e+00, 0.00000000e+00, 10.0000000000, 10.0000000000, 0.0193911710
          38, 0.9906464443, 0.8963325741, 0.0489391381, 116418.1887601211, 0.1318794132, -1.0066256710, -27.8284493990, -1.0066256710, -27.8284493990, 451.0321536929, 133.7744010872, 0.1522446552, 0.3041619406, 0.0000000000, 0.0000000000, -1.78730918e-01, 2.53446805e+00, 2.10306880e+00, 5.25844785e+00, 0.00000000e+00, 10.0000000000, 10.0000000000, 0.0199006351
          39, 0.9908823427, 0.8991017079, 0.0490071691, 116261.9272822022, 0.1321029250, -1.0065846447, -28.1094718388, -1.0065846447, -28.1094718388, 450.9179372782, 131.9382751335, 0.1521509514, 0.2998001885, 0.0000000000, 0.0000000000, -1.98147125e-01, 2.53558462e+00, 2.07281866e+00, 5.34875641e+00, 0.00000000e+00, 10.0000000000, 10.0000000000, 0.0204027140
          40, 0.9910635047, 0.9012210255, 0.0491137849, 116152.0614424750, 0.1321601358, -1.0011129864, -28.1919117689, -1.0011129864, -28.1919117689, 450.2707426749, 130.6187873384, 0.1518944738, 0.2965806852, 0.0000000000, 0.0000000000, -2.00542236e-01, 2.50300843e+00, 2.05349710e+00, 5.22379809e+00, 0.00000000e+00, 10.0000000000, 10.0000000000, 0.0209068409
          41, 0.9912130483, 0.9030345518, 0.0492744950, 116031.0082279726, 0.1321432623, -0.9923424573, -28.1446256169, -0.9923424573, -28.1446256169, 449.3230188346, 129.6148525421, 0.1515479819, 0.2939893740, 0.0000000000, 0.0000000000, -1.77040756e-01, 2.54375222e+00, 2.05728785e+00, 5.33467020e+00, 0.00000000e+00, 10.0000000000, 10.0000000000, 0.0214205649
          42, 0.9913396924, 0.9047013836, 0.0495002610, 115857.0000532158, 0.1321193872, -0.9834686853, -28.0163239112, -0.9834686853, -28.0163239112, 448.2252367317, 128.8330522933, 0.1511584461, 0.2917923343, 0.0000000000, 0.0000000000, -1.77324118e-01, 2.52970483e+00, 2.05366579e+00, 5.24313257e+00, 0.00000000e+00, 10.0000000000, 10.0000000000, 0.0219271507
          43, 0.9914408014, 0.9062298498, 0.0497981052, 115605.3441605410, 0.1321270605, -0.9777383087, -27.8291444901, -0.9777383087, -27.8291444901, 447.0721427360, 128.2803994522, 0.1507555022, 0.2899927877, 0.0000000000, 0.0000000000, -1.77328266e-01, 2.52450491e+00, 2.05359208e+00, 5.31093436e+00, 0.00000000e+00, 10.0000000000, 10.0000000000, 0.0224915363
          44, 0.9915078806, 0.9075339206, 0.0501649072, 115270.7661145855, 0.1321821852, -0.9767670552, -27.6093180667, -0.9767670552, -27.6093180667, 445.9286514056, 127.9956727570, 0.1503599264, 0.2887285982, 0.0000000000, 0.0000000000, -1.70889001e-01, 2.52692211e+00, 2.03517606e+00, 5.29922135e+00, 0.00000000e+00, 10.0000000000, 10.0000000000, 0.0230032331
          45, 0.9915325895, 0.9084818298, 0.0505756636, 114878.2571600678, 0.1322764683, -0.9801935194, -27.3724135749, -0.9801935194, -27.3724135749, 444.8468081723, 128.0272165363, 0.1499890390, 0.2881656615, 0.0000000000, 0.0000000000, -1.77107171e-01, 2.52829594e+00, 2.08214177e+00, 5.32095015e+00, 0.00000000e+00, 10.0000000000, 10.0000000000, 0.0235068632
          46, 0.9915192961, 0.9090322748, 0.0509804502, 114480.6506819126, 0.1323879894, -0.9862492275, -27.0898650808, -0.9862492275, -27.0898650808, 443.8728237853, 128.3838802138, 0.1496585132, 0.2882570268, 0.0000000000, 0.0000000000, -1.81845179e-01, 2.51488888e+00, 2.09534899e+00, 5.32874625e+00, 0.00000000e+00, 10.0000000000, 10.0000000000, 0.0240131053
          47, 0.9914834597, 0.9092411257, 0.0513081826, 114141.2487904589, 0.1325098301, -0.9927961773, -26.7135651001, -0.9927961773, -26.7135651001, 443.0484369147, 129.0236479252, 0.1493824882, 0.2887350306, 0.0000000000, 0.0000000000, -1.68425512e-01, 2.50190416e+00, 2.07880021e+00, 5.29863750e+00, 0.00000000e+00, 10.0000000000, 10.0000000000, 0.0245182719
          48, 0.9914460957, 0.9092054427, 0.0514955498, 113934.1514444862, 0.1326017264, -0.9982007833, -26.1733694796, -0.9982007833, -26.1733694796, 442.4089317609, 129.8737005460, 0.1491726969, 0.2892774865, 0.0000000000, 0.0000000000, -1.25986845e-01, 2.51324967e+00, 2.07173499e+00, 5.29506656e+00, 0.00000000e+00, 10.0000000000, 10.0000000000, 0.0250226766
          49, 0.9914369890, 0.9091944041, 0.0515398100, 113882.5017769417, 0.1326236443, -1.0017483974, -25.4199615778, -1.0017483974, -25.4199615778, 441.9797672500, 130.7528258625, 0.1490372770, 0.2894100662, 0.0000000000, 0.0000000000, -5.48995420e-02, 2.54248334e+00, 2.07354048e+00, 5.33218659e+00, 0.00000000e+00, 10.0000000000, 10.0000000000, 0.0255271832
          50, 0.9914891349, 0.9095565501, 0.0514768820, 113982.0239080829, 0.1325252419, -1.0034786477, -24.4038667040, -1.0034786477, -24.4038667040, 441.7716475832, 131.4267084964, 0.1489789949, 0.2886142132, 0.0000000000, 0.0000000000, 3.51405619e-03, 2.59081273e+00, 2.11697282e+00, 5.45995622e+00, 0.00000000e+00, 10.0000000000, 10.0000000000, 0.0260356547
          51, 0.9916140521, 0.9104981699, 0.0513690449, 114185.6067888318, 0.1322967815, -1.0038292043, -23.1971486328, -1.0038292043, -23.1971486328, 441.7760356837, 131.6721920449, 0.1489937120, 0.2866853431, 0.0000000000, 0.0000000000, 1.24855315e-01, 2.63424936e+00, 2.15805513e+00, 5.54093166e+00, 0.00000000e+00, 10.0000000000, 10.0000000000, 0.0265399081
          52, 0.9918096113, 0.9121019996, 0.0512649771, 114438.3481481824, 0.1319666712, -1.0033127549, -21.9490054472, -1.0033127549, -21.9490054472, 441.9616414456, 131.3070428081, 0.1490692180, 0.2835930127, 0.0000000000, 0.0000000000, -4.64129936e-02, 2.66554073e+00, 2.22707826e+00, 5.60141783e+00, 0.00000000e+00, 10.0000000000, 10.0000000000, 0.0270459629
          53, 0.9920483992, 0.9140583831, 0.0511096094, 114763.2264073600, 0.1315813873, -1.0023343604, -20.9245294373, -1.0023343604, -20.9245294373, 442.2745660285, 130.3018691926, 0.1491854794, 0.2797317011, 0.0000000000, 0.0000000000, -4.10253146e-02, 2.71605525e+00, 2.24334195e+00, 5.66321643e+00, 0.00000000e+00, 10.0000000000, 10.0000000000, 0.0275511722
          54, 0.9922848278, 0.9158100011, 0.0507755714, 115211.2295146450, 0.1312499411, -1.0011932396, -20.4158617610, -1.0011932396, -20.4158617610, 442.6446828144, 128.8525304637, 0.1493172144, 0.2757756210, 0.0000000000, 0.0000000000, -9.47525351e-03, 2.69605284e+00, 2.23526861e+00, 5.62309989e+00, 0.00000000e+00, 10.0000000000, 10.0000000000, 0.0280542855
          55, 0.9924568696, 0.9167101823, 0.0502188888, 115772.5937167096, 0.1310616156, -1.0001035488, -20.5534073786, -1.0001035488, -20.5534073786, 442.9988246082, 127.4355750612, 0.1494388872, 0.2727867228, 0.0000000000, 0.0000000000, -4.50440160e-02, 2.65586423e+00, 2.23639375e+00, 5.56585690e+00, 0.00000000e+00, 10.0000000000, 10.0000000000, 0.0285579421
          56, 0.9925313092, 0.9165131754, 0.0494963576, 116356.8794828324, 0.1310986773, -0.9991633245, -21.1856497366, -0.9991633245, -21.1856497366, 443.2761382669, 126.4817601558, 0.1495301691, 0.2713358412, 0.0000000000, 0.0000000000, -1.75778453e-02, 2.63865578e+00, 2.23472078e+00, 5.55296230e+00, 0.00000000e+00, 10.0000000000, 10.0000000000, 0.0290606488
          57, 0.9924957482, 0.9149901273, 0.0485733155, 116989.3630665502, 0.1313671011, -0.9984559885, -21.9711877037, -0.9984559885, -21.9711877037, 443.4413232786, 126.3764767639, 0.1495804132, 0.2716770102, 0.0000000000, 0.0000000000, 4.10994449e-02, 2.65297287e+00, 2.23629962e+00, 5.57371837e+00, 0.00000000e+00, 10.0000000000, 10.0000000000, 0.0295674626
          58, 0.9923608923, 0.9119566813, 0.0473364780, 117802.3565513178, 0.1317898956, -0.9979882675, -22.6060566104, -0.9979882675, -22.6060566104, 443.4896522677, 127.2870792860, 0.1495898833, 0.2736852230, 0.0000000000, 0.0000000000, 9.67179725e-02, 2.64435733e+00, 2.24764147e+00, 5.57862199e+00, 0.00000000e+00, 10.0000000000, 10.0000000000, 0.0300719794
          59, 0.9921727488, 0.9077756237, 0.0458532059, 118825.5647646374, 0.1321933334, -0.9977190145, -22.9367101212, -0.9977190145, -22.9367101212, 443.4426955034, 128.9225893741, 0.1495676903, 0.2766741249, 0.0000000000, 0.0000000000, 1.60050739e-01, 2.64492315e+00, 2.24704521e+00, 5.59907840e+00, 0.00000000e+00, 10.0000000000, 10.0000000000, 0.0305780131
          60, 0.9919929891, 0.9032503618, 0.0443312968, 119970.9869530383, 0.1324052589, -0.9976113326, -23.0274766352, -0.9976113326, -23.0274766352, 443.3377012223, 130.6527447482, 0.1495277130, 0.2797040587, 0.0000000000, 0.0000000000, 2.32377478e-01, 2.66383886e+00, 2.26356466e+00, 5.59608964e+00, 0.00000000e+00, 10.0000000000, 10.0000000000, 0.0310877518
          61, 0.9918585091, 0.8993076719, 0.0430584908, 121011.6677269837, 0.1324054000, -0.9976531366, -23.1056815645, -0.9976531366, -23.1056815645, 443.2153820336, 131.9103937451, 0.1494842678, 0.2821472979, 0.0000000000, 0.0000000000, 2.70255926e-01, 2.64633067e+00, 2.23715823e+00, 5.60613244e+00, 0.00000000e+00, 10.0000000000, 10.0000000000, 0.0315935317
          62, 0.9917707214, 0.8965497690, 0.0422328358, 121736.0088079205, 0.1322995048, -0.9977665157, -23.2803639365, -0.9977665157, -23.2803639365, 443.1091772731, 132.5687777536, 0.1494484824, 0.2838685971, 0.0000000000, 0.0000000000, 3.19388229e-01, 2.64958813e+00, 2.24666626e+00, 5.60576779e+00, 0.00000000e+00, 10.0000000000, 10.0000000000, 0.0320985813
          63, 0.9917387545, 0.8959789281, 0.0421511996, 121817.6467736058, 0.1322670197, -0.9979095848, -23.2842404390, -0.9979095848, -23.2842404390, 443.0558706244, 132.8147538037, 0.1494327993, 0.2844862076, 0.0000000000, 0.0000000000, 5.29290485e-01, 2.65796134e+00, 2.26310562e+00, 5.61034934e+00, 0.00000000e+00, 10.0000000000, 10.0000000000, 0.0326102401
          64, 0.9917005477, 0.8954837938, 0.0421176915, 121830.1844731014, 0.1322958527, -0.9979412898, -23.2777205950, -0.9979412898, -23.2777205950, 443.0239910631, 133.1268379336, 0.1494236002, 0.2851361952, 0.0000000000, 0.0000000000, 3.69660669e-01, 2.64795469e+00, 2.21790302e+00, 5.59464810e+00, 0.00000000e+00, 10.0000000000, 10.0000000000, 0.0331214354
          65, 0.9916529681, 0.8950072205, 0.0421314329, 121786.2898629547, 0.1323616880, -0.9978380562, -23.2795441495, -0.9978380562, -23.2795441495, 443.0089800475, 133.5019784753, 0.1494195066, 0.2859048334, 0.0000000000, 0.0000000000, 4.79961677e-01, 2.62858011e+00, 2.22746048e+00, 5.58753998e+00, 0.00000000e+00, 10.0000000000, 10.0000000000, 0.0336279841
          66, 0.9915876519, 0.8944642161, 0.0421990482, 121681.8813662884, 0.1324616948, -0.9977703989, -23.3118447318, -0.9977703989, -23.3118447318, 443.0057426135, 133.9773193654, 0.1494190832, 0.2869433416, 0.0000000000, 0.0000000000, 5.68168257e-01, 2.63544133e+00, 2.24769141e+00, 5.58820946e+00, 0.00000000e+00, 10.0000000000, 10.0000000000, 0.0341383975
          67, 0.9914994498, 0.8937490445, 0.0423003908, 121537.1440909424, 0.1325879868, -0.9978389106, -23.3883543619, -0.9978389106, -23.3883543619, 443.0104607292, 134.5772058155, 0.1494211867, 0.2883493944, 0.0000000000, 0.0000000000, 6.66918156e-01, 2.66424991e+00, 2.30828977e+00, 5.59317318e+00, 0.00000000e+00, 10.0000000000, 10.0000000000, 0.0346493479
          68, 0.9913851708, 0.8927553703, 0.0424023866, 121381.4226272252, 0.1327355447, -0.9979994888, -23.5023616668, -0.9979994888, -23.5023616668, 443.0202660944, 135.3340723268, 0.1494248890, 0.2901793225, 0.0000000000, 0.0000000000, 7.68300026e-01, 2.69794889e+00, 2.33502688e+00, 5.60212559e+00, 0.00000000e+00, 10.0000000000, 10.0000000000, 0.0351561036
          69, 0.9912444208, 0.8914070390, 0.0424648943, 121242.5948595697, 0.1329141956, -0.9981582855, -23.6261759048, -0.9981582855, -23.6261759048, 443.0329158596, 136.2865789832, 0.1494294446, 0.2924179549, 0.0000000000, 0.0000000000, 8.74983066e-01, 2.77193496e+00, 2.38206629e+00, 5.62361450e+00, 0.00000000e+00, 10.0000000000, 10.0000000000, 0.0356670721
          70, 0.9910836638, 0.8896580147, 0.0424274877, 121166.5656726564, 0.1331309301, -0.9982482913, -23.7535535625, -0.9982482913, -23.7535535625, 443.0467240033, 137.4058313267, 0.1494342992, 0.2949326234, 0.0000000000, 0.0000000000, 2.59296530e-01, 2.86680300e+00, 2.35166570e+00, 5.64792159e+00, 0.00000000e+00, 10.0000000000, 10.0000000000, 0.0361735139
          71, 0.9909015524, 0.8873608708, 0.0422366790, 121201.8671833934, 0.1333759673, -0.9982544242, -23.8918681652, -0.9982544242, -23.8918681652, 443.0604823911, 138.6997365548, 0.1494390616, 0.2977499084, 0.0000000000, 0.0000000000, 1.43158646e-01, 2.67634323e+00, 2.36075479e+00, 5.61120127e+00, 0.00000000e+00, 10.0000000000, 10.0000000000, 0.0367719926
          72, 0.9906868345, 0.8844074081, 0.0419090838, 121332.4201534346, 0.1336545601, -0.9982009378, -24.0491621078, -0.9982009378, -24.0491621078, 443.0732984459, 140.2323152967, 0.1494434411, 0.3010431051, 0.0000000000, 0.0000000000, 2.04631332e-01, 2.66108241e+00, 2.36894994e+00, 5.61591268e+00, 0.00000000e+00, 10.0000000000, 10.0000000000, 0.0373639690
          73, 0.9904089021, 0.8803081729, 0.0414066856, 121598.8031235876, 0.1339467680, -0.9981240860, -24.2327093819, -0.9981240860, -24.2327093819, 443.0844651413, 142.2025471216, 0.1494472047, 0.3053341671, 0.0000000000, 0.0000000000, 3.44288782e-01, 2.71114021e+00, 2.36797109e+00, 5.66480088e+00, 0.00000000e+00, 10.0000000000, 10.0000000000, 0.0379761272
          74, 0.9900635863, 0.8750110838, 0.0407353404, 121976.3804337396, 0.1342926762, -0.9980521677, -24.4445099196, -0.9980521677, -24.4445099196, 443.0933855596, 144.6273159659, 0.1494501531, 0.3105941401, 0.0000000000, 0.0000000000, 3.50131764e-01, 2.70473981e+00, 2.39350274e+00, 5.66954830e+00, 0.00000000e+00, 10.0000000000, 10.0000000000, 0.0385438482
          75, 0.9896521999, 0.8686737066, 0.0399604529, 122391.8761222826, 0.1347335353, -0.9980011201, -24.6393082491, -0.9980011201, -24.6393082491, 443.0995930760, 147.5229144412, 0.1494521334, 0.3166896228, 0.0000000000, 0.0000000000, 2.93401155e-01, 2.71069079e+00, 2.37476208e+00, 5.68872746e+00, 0.00000000e+00, 10.0000000000, 10.0000000000, 0.0390400876
          76, 0.9891646357, 0.8609264548, 0.0390158207, 122903.4707541235, 0.1352601883, -0.9979730610, -24.8348934627, -0.9979730610, -24.8348934627, 443.1027534721, 150.9251983075, 0.1494530380, 0.3237334078, 0.0000000000, 0.0000000000, 2.97425934e-01, 2.69110963e+00, 2.38832317e+00, 5.67811613e+00, 0.00000000e+00, 10.0000000000, 10.0000000000, 0.0395477614
          77, 0.9885723010, 0.8513981144, 0.0379411298, 123497.3056907907, 0.1358341313, -0.9979644611, -25.0343437597, -0.9979644611, -25.0343437597, 443.1027662621, 154.9552072922, 0.1494528465, 0.3321505766, 0.0000000000, 0.0000000000, 4.30655841e-01, 2.71910075e+00, 2.46044533e+00, 5.73047015e+00, 0.00000000e+00, 10.0000000000, 10.0000000000, 0.0401376556
          78, 0.9878824029, 0.8398894701, 0.0366898935, 124210.4113173775, 0.1364553127, -0.9979690876, -25.1854473587, -0.9979690876, -25.1854473587, 443.0998765571, 159.6012713662, 0.1494516650, 0.3417270650, 0.0000000000, 0.0000000000, 4.18320859e-01, 2.70235008e+00, 2.46968650e+00, 5.72515190e+00, 0.00000000e+00, 10.0000000000, 10.0000000000, 0.0406375748
          79, 0.9871126406, 0.8263720783, 0.0352456691, 125044.3128875146, 0.1371467743, -0.9979814437, -25.2207352241, -0.9979814437, -25.2207352241, 443.0947444337, 164.8287823994, 0.1494497477, 0.3520697888, 0.0000000000, 0.0000000000, 4.08514476e-01, 2.66426006e+00, 2.48103269e+00, 5.68293232e+00, 0.00000000e+00, 10.0000000000, 10.0000000000, 0.0411475445
          80, 0.9862386932, 0.8109062130, 0.0336898428, 125838.3572132413, 0.1381129350, -0.9979971089, -25.2712354892, -0.9979971089, -25.2712354892, 443.0883718422, 170.6394637825, 0.1494474630, 0.3631166316, 0.0000000000, 0.0000000000, 3.88718583e-01, 2.68055036e+00, 2.49073542e+00, 5.71812335e+00, 0.00000000e+00, 10.0000000000, 10.0000000000, 0.0416543055