# vtk DataFile Version 3.0
vtk output
ASCII
DATASET UNSTRUCTURED_GRID
POINTS 5535 double
0.000000e+00	0.000000e+00	0.0	6.500000e+01	0.000000e+00	0.0	6.500000e+01	6.500000e+00	0.0	0.000000e+00	6.500000e+00	0.0	0.000000e+00	3.250000e+00	0.0	2.995392e-01	0.000000e+00	0.0	5.990783e-01	0.000000e+00	0.0	8.986175e-01	0.000000e+00	0.0	1.198157e+00	0.000000e+00	0.0	1.497696e+00	0.000000e+00	0.0	1.797235e+00	0.000000e+00	0.0	2.096774e+00	0.000000e+00	0.0	2.396313e+00	0.000000e+00	0.0	2.695853e+00	0.000000e+00	0.0	2.995392e+00	0.000000e+00	0.0	3.294931e+00	0.000000e+00	0.0	3.594470e+00	0.000000e+00	0.0	3.894009e+00	0.000000e+00	0.0	4.193548e+00	0.000000e+00	0.0	4.493088e+00	0.000000e+00	0.0	4.792627e+00	0.000000e+00	0.0	5.092166e+00	0.000000e+00	0.0	5.391705e+00	0.000000e+00	0.0	5.691244e+00	0.000000e+00	0.0	5.990783e+00	0.000000e+00	0.0	6.290323e+00	0.000000e+00	0.0	6.589862e+00	0.000000e+00	0.0	6.889401e+00	0.000000e+00	0.0	7.188940e+00	0.000000e+00	0.0	7.488479e+00	0.000000e+00	0.0	7.788018e+00	0.000000e+00	0.0	8.087558e+00	0.000000e+00	0.0	8.387097e+00	0.000000e+00	0.0	8.686636e+00	0.000000e+00	0.0	8.986175e+00	0.000000e+00	0.0	9.285714e+00	0.000000e+00	0.0	9.585253e+00	0.000000e+00	0.0	9.884793e+00	0.000000e+00	0.0	1.018433e+01	0.000000e+00	0.0	1.048387e+01	0.000000e+00	0.0	1.078341e+01	0.000000e+00	0.0	1.108295e+01	0.000000e+00	0.0	1.138249e+01	0.000000e+00	0.0	1.168203e+01	0.000000e+00	0.0	1.198157e+01	0.000000e+00	0.0	1.228111e+01	0.000000e+00	0.0	1.258065e+01	0.000000e+00	0.0	1.288018e+01	0.000000e+00	0.0	1.317972e+01	0.000000e+00	0.0	1.347926e+01	0.000000e+00	0.0	1.377880e+01	0.000000e+00	0.0	1.407834e+01	0.000000e+00	0.0	1.437788e+01	0.000000e+00	0.0	1.467742e+01	0.000000e+00	0.0	1.497696e+01	0.000000e+00	0.0	1.527650e+01	0.000000e+00	0.0	1.557604e+01	0.000000e+00	0.0	1.587558e+01	0.000000e+00	0.0	1.617512e+01	0.000000e+00	0.0	1.647465e+01	0.000000e+00	0.0	1.677419e+01	0.000000e+00	0.0	1.707373e+01	0.000000e+00	0.0	1.737327e+01	0.000000e+00	0.0	1.767281e+01	0.000000e+00	0.0	1.797235e+01	0.000000e+00	0.0	1.827189e+01	0.000000e+00	0.0	1.857143e+01	0.000000e+00	0.0	1.887097e+01	0.000000e+00	0.0	1.917051e+01	0.000000e+00	0.0	1.947005e+01	0.000000e+00	0.0	1.976959e+01	0.000000e+00	0.0	2.006912e+01	0.000000e+00	0.0	2.036866e+01	0.000000e+00	0.0	2.066820e+01	0.000000e+00	0.0	2.096774e+01	0.000000e+00	0.0	2.126728e+01	0.000000e+00	0.0	2.156682e+01	0.000000e+00	0.0	2.186636e+01	0.000000e+00	0.0	2.216590e+01	0.000000e+00	0.0	2.246544e+01	0.000000e+00	0.0	2.276498e+01	0.000000e+00	0.0	2.306452e+01	0.000000e+00	0.0	2.336406e+01	0.000000e+00	0.0	2.366359e+01	0.000000e+00	0.0	2.396313e+01	0.000000e+00	0.0	2.426267e+01	0.000000e+00	0.0	2.456221e+01	0.000000e+00	0.0	2.486175e+01	0.000000e+00	0.0	2.516129e+01	0.000000e+00	0.0	2.546083e+01	0.000000e+00	0.0	2.576037e+01	0.000000e+00	0.0	2.605991e+01	0.000000e+00	0.0	2.635945e+01	0.000000e+00	0.0	2.665899e+01	0.000000e+00	0.0	2.695853e+01	0.000000e+00	0.0	2.725806e+01	0.000000e+00	0.0	2.755760e+01	0.000000e+00	0.0	2.785714e+01	0.000000e+00	0.0	2.815668e+01	0.000000e+00	0.0	2.845622e+01	0.000000e+00	0.0	2.875576e+01	0.000000e+00	0.0	2.905530e+01	0.000000e+00	0.0	2.935484e+01	0.000000e+00	0.0	2.965438e+01	0.000000e+00	0.0	2.995392e+01	0.000000e+00	0.0	3.025346e+01	0.000000e+00	0.0	3.055300e+01	0.000000e+00	0.0	3.085253e+01	0.000000e+00	0.0	3.115207e+01	0.000000e+00	0.0	3.145161e+01	0.000000e+00	0.0	3.175115e+01	0.000000e+00	0.0	3.205069e+01	0.000000e+00	0.0	3.235023e+01	0.000000e+00	0.0	3.264977e+01	0.000000e+00	0.0	3.294931e+01	0.000000e+00	0.0	3.324885e+01	0.000000e+00	0.0	3.354839e+01	0.000000e+00	0.0	3.384793e+01	0.000000e+00	0.0	3.414747e+01	0.000000e+00	0.0	3.444700e+01	0.000000e+00	0.0	3.474654e+01	0.000000e+00	0.0	3.504608e+01	0.000000e+00	0.0	3.534562e+01	0.000000e+00	0.0	3.564516e+01	0.000000e+00	0.0	3.594470e+01	0.000000e+00	0.0	3.624424e+01	0.000000e+00	0.0	3.654378e+01	0.000000e+00	0.0	3.684332e+01	0.000000e+00	0.0	3.714286e+01	0.000000e+00	0.0	3.744240e+01	0.000000e+00	0.0	3.774194e+01	0.000000e+00	0.0	3.804147e+01	0.000000e+00	0.0	3.834101e+01	0.000000e+00	0.0	3.864055e+01	0.000000e+00	0.0	3.894009e+01	0.000000e+00	0.0	3.923963e+01	0.000000e+00	0.0	3.953917e+01	0.000000e+00	0.0	3.983871e+01	0.000000e+00	0.0	4.013825e+01	0.000000e+00	0.0	4.043779e+01	0.000000e+00	0.0	4.073733e+01	0.000000e+00	0.0	4.103687e+01	0.000000e+00	0.0	4.133641e+01	0.000000e+00	0.0	4.163594e+01	0.000000e+00	0.0	4.193548e+01	0.000000e+00	0.0	4.223502e+01	0.000000e+00	0.0	4.253456e+01	0.000000e+00	0.0	4.283410e+01	0.000000e+00	0.0	4.313364e+01	0.000000e+00	0.0	4.343318e+01	0.000000e+00	0.0	4.373272e+01	0.000000e+00	0.0	4.403226e+01	0.000000e+00	0.0	4.433180e+01	0.000000e+00	0.0	4.463134e+01	0.000000e+00	0.0	4.493088e+01	0.000000e+00	0.0	4.523041e+01	0.000000e+00	0.0	4.552995e+01	0.000000e+00	0.0	4.582949e+01	0.000000e+00	0.0	4.612903e+01	0.000000e+00	0.0	4.642857e+01	0.000000e+00	0.0	4.672811e+01	0.000000e+00	0.0	4.702765e+01	0.000000e+00	0.0	4.732719e+01	0.000000e+00	0.0	4.762673e+01	0.000000e+00	0.0	4.792627e+01	0.000000e+00	0.0	4.822581e+01	0.000000e+00	0.0	4.852535e+01	0.000000e+00	0.0	4.882488e+01	0.000000e+00	0.0	4.912442e+01	0.000000e+00	0.0	4.942396e+01	0.000000e+00	0.0	4.972350e+01	0.000000e+00	0.0	5.002304e+01	0.000000e+00	0.0	5.032258e+01	0.000000e+00	0.0	5.062212e+01	0.000000e+00	0.0	5.092166e+01	0.000000e+00	0.0	5.122120e+01	0.000000e+00	0.0	5.152074e+01	0.000000e+00	0.0	5.182028e+01	0.000000e+00	0.0	5.211982e+01	0.000000e+00	0.0	5.241935e+01	0.000000e+00	0.0	5.271889e+01	0.000000e+00	0.0	5.301843e+01	0.000000e+00	0.0	5.331797e+01	0.000000e+00	0.0	5.361751e+01	0.000000e+00	0.0	5.391705e+01	0.000000e+00	0.0	5.421659e+01	0.000000e+00	0.0	5.451613e+01	0.000000e+00	0.0	5.481567e+01	0.000000e+00	0.0	5.511521e+01	0.000000e+00	0.0	5.541475e+01	0.000000e+00	0.0	5.571429e+01	0.000000e+00	0.0	5.601382e+01	0.000000e+00	0.0	5.631336e+01	0.000000e+00	0.0	5.661290e+01	0.000000e+00	0.0	5.691244e+01	0.000000e+00	0.0	5.721198e+01	0.000000e+00	0.0	5.751152e+01	0.000000e+00	0.0	5.781106e+01	0.000000e+00	0.0	5.811060e+01	0.000000e+00	0.0	5.841014e+01	0.000000e+00	0.0	5.870968e+01	0.000000e+00	0.0	5.900922e+01	0.000000e+00	0.0	5.930876e+01	0.000000e+00	0.0	5.960829e+01	0.000000e+00	0.0	5.990783e+01	0.000000e+00	0.0	6.020737e+01	0.000000e+00	0.0	6.050691e+01	0.000000e+00	0.0	6.080645e+01	0.000000e+00	0.0	6.110599e+01	0.000000e+00	0.0	6.140553e+01	0.000000e+00	0.0	6.170507e+01	0.000000e+00	0.0	6.200461e+01	0.000000e+00	0.0	6.230415e+01	0.000000e+00	0.0	6.260369e+01	0.000000e+00	0.0	6.290323e+01	0.000000e+00	0.0	6.320276e+01	0.000000e+00	0.0	6.350230e+01	0.000000e+00	0.0	6.380184e+01	0.000000e+00	0.0	6.410138e+01	0.000000e+00	0.0	6.440092e+01	0.000000e+00	0.0	6.470046e+01	0.000000e+00	0.0	6.500000e+01	2.954545e-01	0.0	6.500000e+01	5.909091e-01	0.0	6.500000e+01	8.863636e-01	0.0	6.500000e+01	1.181818e+00	0.0	6.500000e+01	1.477273e+00	0.0	6.500000e+01	1.772727e+00	0.0	6.500000e+01	2.068182e+00	0.0	6.500000e+01	2.363636e+00	0.0	6.500000e+01	2.659091e+00	0.0	6.500000e+01	2.954545e+00	0.0	6.500000e+01	3.250000e+00	0.0	6.500000e+01	3.545455e+00	0.0	6.500000e+01	3.840909e+00	0.0	6.500000e+01	4.136364e+00	0.0	6.500000e+01	4.431818e+00	0.0	6.500000e+01	4.727273e+00	0.0	6.500000e+01	5.022727e+00	0.0	6.500000e+01	5.318182e+00	0.0	6.500000e+01	5.613636e+00	0.0	6.500000e+01	5.909091e+00	0.0	6.500000e+01	6.204545e+00	0.0	6.470046e+01	6.500000e+00	0.0	6.440092e+01	6.500000e+00	0.0	6.410138e+01	6.500000e+00	0.0	6.380184e+01	6.500000e+00	0.0	6.350230e+01	6.500000e+00	0.0	6.320276e+01	6.500000e+00	0.0	6.290323e+01	6.500000e+00	0.0	6.260369e+01	6.500000e+00	0.0	6.230415e+01	6.500000e+00	0.0	6.200461e+01	6.500000e+00	0.0	6.170507e+01	6.500000e+00	0.0	6.140553e+01	6.500000e+00	0.0	6.110599e+01	6.500000e+00	0.0	6.080645e+01	6.500000e+00	0.0	6.050691e+01	6.500000e+00	0.0	6.020737e+01	6.500000e+00	0.0	5.990783e+01	6.500000e+00	0.0	5.960829e+01	6.500000e+00	0.0	5.930876e+01	6.500000e+00	0.0	5.900922e+01	6.500000e+00	0.0	5.870968e+01	6.500000e+00	0.0	5.841014e+01	6.500000e+00	0.0	5.811060e+01	6.500000e+00	0.0	5.781106e+01	6.500000e+00	0.0	5.751152e+01	6.500000e+00	0.0	5.721198e+01	6.500000e+00	0.0	5.691244e+01	6.500000e+00	0.0	5.661290e+01	6.500000e+00	0.0	5.631336e+01	6.500000e+00	0.0	5.601382e+01	6.500000e+00	0.0	5.571429e+01	6.500000e+00	0.0	5.541475e+01	6.500000e+00	0.0	5.511521e+01	6.500000e+00	0.0	5.481567e+01	6.500000e+00	0.0	5.451613e+01	6.500000e+00	0.0	5.421659e+01	6.500000e+00	0.0	5.391705e+01	6.500000e+00	0.0	5.361751e+01	6.500000e+00	0.0	5.331797e+01	6.500000e+00	0.0	5.301843e+01	6.500000e+00	0.0	5.271889e+01	6.500000e+00	0.0	5.241935e+01	6.500000e+00	0.0	5.211982e+01	6.500000e+00	0.0	5.182028e+01	6.500000e+00	0.0	5.152074e+01	6.500000e+00	0.0	5.122120e+01	6.500000e+00	0.0	5.092166e+01	6.500000e+00	0.0	5.062212e+01	6.500000e+00	0.0	5.032258e+01	6.500000e+00	0.0	5.002304e+01	6.500000e+00	0.0	4.972350e+01	6.500000e+00	0.0	4.942396e+01	6.500000e+00	0.0	4.912442e+01	6.500000e+00	0.0	4.882488e+01	6.500000e+00	0.0	4.852535e+01	6.500000e+00	0.0	4.822581e+01	6.500000e+00	0.0	4.792627e+01	6.500000e+00	0.0	4.762673e+01	6.500000e+00	0.0	4.732719e+01	6.500000e+00	0.0	4.702765e+01	6.500000e+00	0.0	4.672811e+01	6.500000e+00	0.0	4.642857e+01	6.500000e+00	0.0	4.612903e+01	6.500000e+00	0.0	4.582949e+01	6.500000e+00	0.0	4.552995e+01	6.500000e+00	0.0	4.523041e+01	6.500000e+00	0.0	4.493088e+01	6.500000e+00	0.0	4.463134e+01	6.500000e+00	0.0	4.433180e+01	6.500000e+00	0.0	4.403226e+01	6.500000e+00	0.0	4.373272e+01	6.500000e+00	0.0	4.343318e+01	6.500000e+00	0.0	4.313364e+01	6.500000e+00	0.0	4.283410e+01	6.500000e+00	0.0	4.253456e+01	6.500000e+00	0.0	4.223502e+01	6.500000e+00	0.0	4.193548e+01	6.500000e+00	0.0	4.163594e+01	6.500000e+00	0.0	4.133641e+01	6.500000e+00	0.0	4.103687e+01	6.500000e+00	0.0	4.073733e+01	6.500000e+00	0.0	4.043779e+01	6.500000e+00	0.0	4.013825e+01	6.500000e+00	0.0	3.983871e+01	6.500000e+00	0.0	3.953917e+01	6.500000e+00	0.0	3.923963e+01	6.500000e+00	0.0	3.894009e+01	6.500000e+00	0.0	3.864055e+01	6.500000e+00	0.0	3.834101e+0
[...]
POINT_DATA 5535

SCALARS Density double 1
LOOKUP_TABLE default
4.130722e+00	2.354114e+00	2.097626e+00	1.934852e+00	2.653972e+00	4.129837e+00	4.124924e+00	4.109237e+00	4.064274e+00	3.970257e+00	3.837109e+00	3.618551e+00	3.387006e+00	3.185355e+00	2.909967e+00	2.713742e+00	2.584841e+00	2.366919e+00	2.240031e+00	2.062936e+00	1.949107e+00	1.823610e+00	1.719183e+00	1.621719e+00	1.530383e+00	1.471683e+00	1.412510e+00	1.359492e+00	1.314713e+00	1.278949e+00	1.252603e+00	1.236063e+00	1.229890e+00	1.234950e+00	1.252519e+00	1.284288e+00	1.333256e+00	1.403003e+00	1.497518e+00	1.621334e+00	1.780430e+00	1.978097e+00	2.220543e+00	2.478317e+00	2.716741e+00	2.908067e+00	3.038985e+00	3.119768e+00	3.165209e+00	3.188107e+00	3.197261e+00	3.197912e+00	3.192902e+00	3.183716e+00	3.171190e+00	3.155912e+00	3.138395e+00	3.119120e+00	3.098472e+00	3.076598e+00	3.053230e+00	3.027567e+00	2.998309e+00	2.963894e+00	2.922875e+00	2.874310e+00	2.817992e+00	2.754492e+00	2.685010e+00	2.611148e+00	2.534798e+00	2.457833e+00	2.381467e+00	2.307061e+00	2.235530e+00	2.168726e+00	2.107645e+00	2.052887e+00	2.004953e+00	1.964289e+00	1.931293e+00	1.906332e+00	1.889747e+00	1.881865e+00	1.882992e+00	1.893394e+00	1.913315e+00	1.942812e+00	1.981654e+00	2.029177e+00	2.084152e+00	2.145386e+00	2.210078e+00	2.274989e+00	2.337245e+00	2.394702e+00	2.446060e+00	2.490797e+00	2.528980e+00	2.560999e+00	2.587482e+00	2.609108e+00	2.626429e+00	2.639903e+00	2.649924e+00	2.656834e+00	2.660924e+00	2.662437e+00	2.661568e+00	2.658477e+00	2.653305e+00	2.646171e+00	2.637167e+00	2.626356e+00	2.613770e+00	2.599432e+00	2.583364e+00	2.565608e+00	2.546236e+00	2.525359e+00	2.503138e+00	2.479788e+00	2.455578e+00	2.430835e+00	2.405935e+00	2.381304e+00	2.357395e+00	2.334635e+00	2.313437e+00	2.294186e+00	2.277213e+00	2.262788e+00	2.251112e+00	2.242312e+00	2.236448e+00	2.233518e+00	2.233453e+00	2.236126e+00	2.241349e+00	2.248877e+00	2.258403e+00	2.269567e+00	2.281968e+00	2.295202e+00	2.308889e+00	2.322697e+00	2.336346e+00	2.349594e+00	2.362244e+00	2.374149e+00	2.385194e+00	2.395297e+00	2.404416e+00	2.412541e+00	2.419684e+00	2.425862e+00	2.431090e+00	2.435383e+00	2.438753e+00	2.441213e+00	2.442773e+00	2.443440e+00	2.443221e+00	2.442123e+00	2.440162e+00	2.437373e+00	2.433809e+00	2.429539e+00	2.424636e+00	2.419173e+00	2.413221e+00	2.406850e+00	2.400131e+00	2.393143e+00	2.385968e+00	2.378703e+00	2.371456e+00	2.364342e+00	2.357477e+00	2.350964e+00	2.344894e+00	2.339341e+00	2.334360e+00	2.329991e+00	2.326261e+00	2.323184e+00	2.320761e+00	2.318978e+00	2.317812e+00	2.317228e+00	2.317194e+00	2.317677e+00	2.318637e+00	2.320021e+00	2.321755e+00	2.323743e+00	2.325914e+00	2.328211e+00	2.330553e+00	2.332872e+00	2.335226e+00	2.337659e+00	2.340207e+00	2.342865e+00	2.345763e+00	2.348500e+00	2.351478e+00	2.353185e+00	2.353480e+00	2.353469e+00	2.353152e+00	2.352542e+00	2.352812e+00	2.353569e+00	2.353821e+00	2.353556e+00	2.352767e+00	2.352790e+00	2.352965e+00	2.353626e+00	2.354361e+00	2.352587e+00	2.348731e+00	2.340064e+00	2.332060e+00	2.322466e+00	2.311636e+00	2.297361e+00	2.281928e+00	2.265128e+00	2.248307e+00	2.235143e+00	2.220157e+00	2.201034e+00	2.182533e+00	2.166302e+00	2.151285e+00	2.138837e+00	2.125999e+00	2.116005e+00	2.105881e+00	2.100145e+00	2.095947e+00	2.095064e+00	2.093917e+00	2.093054e+00	2.092769e+00	2.091108e+00	2.088169e+00	2.085479e+00	2.084174e+00	2.084278e+00	2.084237e+00	2.084095e+00	2.082178e+00	2.081121e+00	2.080799e+00	2.080917e+00	2.080680e+00	2.080198e+00	2.079565e+00	2.078939e+00	2.078452e+00	2.078105e+00	2.077808e+00	2.077579e+00	2.077458e+00	2.077449e+00	2.077453e+00	2.077335e+00	2.077111e+00	2.076914e+00	2.076800e+00	2.076728e+00	2.076662e+00	2.076577e+00	2.076454e+00	2.076280e+00	2.076044e+00	2.075741e+00	2.075365e+00	2.074906e+00	2.074357e+00	2.073719e+00	2.072980e+00	2.072119e+00	2.071122e+00	2.069978e+00	2.068676e+00	2.067235e+00	2.065634e+00	2.063864e+00	2.061921e+00	2.059807e+00	2.057529e+00	2.055092e+00	2.052518e+00	2.049932e+00	2.047281e+00	2.044582e+00	2.041863e+00	2.039153e+00	2.036486e+00	2.033902e+00	2.031440e+00	2.029138e+00	2.027027e+00	2.025133e+00	2.023472e+00	2.022056e+00	2.020891e+00	2.019980e+00	2.019321e+00	2.018907e+00	2.018720e+00	2.018742e+00	2.018953e+00	2.019332e+00	2.019859e+00	2.020514e+00	2.021277e+00	2.022127e+00	2.023032e+00	2.023960e+00	2.024874e+00	2.025752e+00	2.026652e+00	2.027606e+00	2.028525e+00	2.029394e+00	2.030341e+00	2.031232e+00	2.032033e+00	2.032720e+00	2.033272e+00	2.033672e+00	2.033900e+00	2.033936e+00	2.033752e+00	2.033314e+00	2.032575e+00	2.031482e+00	2.029972e+00	2.027981e+00	2.025443e+00	2.022291e+00	2.018452e+00	2.013847e+00	2.008398e+00	2.002150e+00	1.995351e+00	1.988282e+00	1.980900e+00	1.973306e+00	1.965717e+00	1.958382e+00	1.951541e+00	1.945394e+00	1.940083e+00	1.935682e+00	1.932203e+00	1.929607e+00	1.927826e+00	1.926772e+00	1.926361e+00	1.926510e+00	1.927145e+00	1.928199e+00	1.929612e+00	1.931331e+00	1.933310e+00	1.935504e+00	1.937860e+00	1.940328e+00	1.942869e+00	1.945460e+00	1.948075e+00	1.950677e+00	1.953223e+00	1.955672e+00	1.957987e+00	1.960250e+00	1.962531e+00	1.964890e+00	1.967270e+00	1.969578e+00	1.971771e+00	1.973829e+00	1.975740e+00	1.977492e+00	1.979073e+00	1.980461e+00	1.981625e+00	1.982519e+00	1.983080e+00	1.983222e+00	1.982835e+00	1.981774e+00	1.979856e+00	1.976859e+00	1.972514e+00	1.966512e+00	1.958514e+00	1.948195e+00	1.935442e+00	1.920913e+00	1.905053e+00	1.888558e+00	1.872437e+00	1.857734e+00	1.845231e+00	1.835273e+00	1.827795e+00	1.822477e+00	1.818922e+00	1.816769e+00	1.815728e+00	1.815587e+00	1.816189e+00	1.817420e+00	1.819192e+00	1.821434e+00	1.824083e+00	1.827084e+00	1.830382e+00	1.833922e+00	1.837649e+00	1.841515e+00	1.845487e+00	1.849548e+00	1.853689e+00	1.857948e+00	1.862403e+00	1.867127e+00	1.872096e+00	1.877053e+00	1.881801e+00	1.886333e+00	1.890715e+00	1.895042e+00	1.899214e+00	1.904105e+00	1.911353e+00	1.917445e+00	1.921499e+00	1.926078e+00	1.930504e+00	1.934795e+00	1.938087e+00	1.940926e+00	1.943145e+00	1.944419e+00	1.944643e+00	1.944056e+00	1.942596e+00	1.940579e+00	1.937903e+00	1.934521e+00	1.937198e+00	1.941879e+00	1.946179e+00	1.950186e+00	1.953282e+00	1.955500e+00	1.954657e+00	1.949137e+00	1.920606e+00	1.847991e+00	3.959133e+00	4.096244e+00	4.124553e+00	4.129129e+00	4.130290e+00	4.130639e+00	4.130734e+00	4.130748e+00	4.130694e+00	4.130762e+00	2.336481e+00	2.343973e+00	1.948160e+00	1.944881e+00	4.129237e+00	4.128030e+00	2.111527e+00	2.119236e+00	2.204299e+00	2.209784e+00	2.196093e+00	2.353164e+00	2.353115e+00	2.351563e+00	2.111865e+00	2.098643e+00	2.117706e+00	1.943229e+00	1.944482e+00	1.944195e+00	2.224035e+00	1.991112e+00	1.995622e+00	1.953673e+00	2.087871e+00	2.121498e+00	2.115841e+00	2.135192e+00	2.250936e+00	2.246651e+00	2.236152e+00	2.228430e+00	1.961001e+00	1.821713e+00	1.872435e+00	1.879255e+00	2.151243e+00	2.159025e+00	2.144928e+00	2.165946e+00	2.269754e+00	2.282839e+00	2.281860e+00	2.017998e+00	2.082709e+00	2.000870e+00	2.167574e+00	2.167922e+00	2.154341e+00	2.186351e+00	2.121415e+00	2.109000e+00	2.105792e+00	2.294804e+00	1.855829e+00	1.944375e+00	1.851410e+00	1.954370e+00	1.956570e+00	1.956339e+00	1.979623e+00	1.645014e+00	2.223531e+00	2.116394e+00	2.207384e+00	2.081472e+00	2.099478e+00	1.903040e+00	1.900878e+00	1.903404e+00	2.163136e+00	2.247675e+00	2.132636e+00	1.911690e+00	2.230669e+00	2.343894e+00	2.341010e+00	2.345544e+00	2.278143e+00	2.271528e+00	2.286590e+00	2.350444e+00	2.262553e+00	2.213014e+00	2.205643e+00	2.196829e+00	2.090168e+00	2.096133e+00	2.098667e+00	2.109707e+00	2.086334e+00	2.088809e+00	2.403146e+00	2.444490e+00	2.543752e+00	2.033725e+00	2.110011e+00	2.181260e+00	2.085900e+00	2.272050e+00	1.939051e+00	1.944353e+00	1.937814e+00	1.945849e+00	2.096642e+00	2.172383e+00	2.036856e+00	2.221146e+00	2.226497e+00	2.326289e+00	2.318528e+00	2.332730e+00	2.314054e+00	1.695578e+00	1.744471e+00	1.786801e+00	2.165715e+00	2.179998e+00	2.154373e+00	2.032886e+00	2.040415e+00	2.045437e+00	2.014797e+00	2.235944e+00	2.237851e+00	2.221790e+00	2.251109e+00	2.240728e+00	2.242863e+00	2.225381e+00	2.255392e+00	2.029979e+00	2.038067e+00	2.017377e+00	2.243985e+00	2.226956e+00	2.256550e+00	2.027230e+00	2.032431e+00	2.009951e+00	1.905842e+00	1.917049e+00	1.962112e+00	1.837133e+00	2.020393e+00	2.032159e+00	2.003631e+00	1.929329e+00	1.969297e+00	1.859173e+00	2.011474e+00	2.029052e+00	1.997532e+00	1.942303e+00	1.975513e+00	1.881819e+00	2.006357e+00	2.032111e+00	1.990573e+00	1.957373e+00	1.983258e+00	1.906004e+00	2.002935e+00	2.032767e+00	1.984996e+00	1.974448e+00	1.992939e+00	1.931588e+00	2.000667e+00	2.033068e+00	1.980785e+00	4.119965e+00	4.123606e+00	1.948548e+00	1.945467e+00	2.113799e+00	2.107321e+00	2.338501e+00	2.345705e+00	1.992954e+00	2.004331e+00	1.941365e+00	1.943295e+00	1.957777e+00	2.095379e+00	2.097185e+00	1.999517e+00	2.033979e+00	2.352567e+00	2.351918e+00	1.977737e+00	4.081005e+00	4.117118e+00	2.012645e+00	2.017090e+00	1.984766e+00	1.999578e+00	2.035988e+00	1.975781e+00	2.033491e+00	2.031053e+00	2.012795e+00	2.000925e+00	2.039311e+00	1.974933e+00	2.055616e+00	2.046208e+00	2.042099e+00	2.003583e+00	2.044009e+00	1.975227e+00	2.079267e+00	2.062644e+00	2.073012e+00	2.007541e+00	2.050079e+00	1.976682e+00	2.104796e+00	2.080519e+00	2.105995e+00	2.012788e+00	2.057502e+00	1.979308e+00	2.132675e+00	2.100066e+00	2.141665e+00	2.019349e+00	2.066289e+00	1.983122e+00	2.163567e+00	2.121616e+00	1.942644e+00	1.946022e+00	2.180870e+00	2.027314e+00	2.076517e+00	2.102673e+00	2.101039e+00	1.988178e+00	2.198662e+00	2.145653e+00	2.350947e+00	2.347118e+00	2.224842e+00	2.036877e+00	2.088356e+00	4.112264e+00	4.125413e+00	1.994599e+00	2.239976e+00	2.173116e+00	2.275771e+00	4.125046e+00	2.048331e+00	2.102110e+00	2.002605e+00	1.951490e+00	2.290728e+00	2.205673e+00	2.338086e+00	2.130729e+00	2.065727e+00	2.117929e+00	2.012369e+00	2.328968e+00	2.355128e+00	2.434860e+00	2.301434e+00	4.106285e+00	4.108169e+00	2.504806e+00	2.112055e+00	2.086096e+00	2.162395e+00	1.951960e+00	1.949051e+00	2.042795e+00	2.247305e+00	2.110824e+00	2.122892e+00	2.414396e+00	2.139591e+00	2.332567e+00	2.340881e+00	2.025250e+00	2.524391e+00	2.616273e+00	2.450288e+00	1.944106e+00	2.698315e+00	2.094307e+00	2.195881e+00	2.146138e+00	2.249170e+00	2.352344e+00	2.100742e+00	4.017314e+00	2.369191e+00	2.603041e+00	2.198626e+00	2.066850e+00	2.698642e+00	2.764913e+00	2.620920e+00	1.944885e+00	1.948364e+00	1.947517e+00	2.842082e+00	2.333062e+00	2.258704e+00	2.395790e+00	2.106439e+00	2.108407e+00	2.101040e+00	2.208086e+00	2.537502e+00	2.349502e+00	2.343965e+00	2.346577e+00	2.779917e+00	2.317077e+00	4.040942e+00	4.082354e+00	4.084170e+00	2.148186e+00	2.810604e+00	2.835179e+00	2.736548e+00	2.906648e+00	2.443173e+00	2.399233e+00	2.531022e+00	2.326454e+00	2.688903e+00	4.116137e+00	2.883706e+00	1.954843e+00	2.473480e+00	2.142971e+00	2.272646e+00	2.319011e+00	4.062515e+00	4.100668e+00	4.074277e+00	1.954506e+00	1.955498e+00	1.952115e+00	2.132193e+00	2.133969e+00	2.119637e+00	2.324583e+00	2.326245e+00	2.335815e+00	2.837796e+00	2.756260e+00	2.912918e+00	1.945013e+00	2.464152e+00	2.564035e+00	2.357628e+00	2.094649e+00	2.822911e+00	2.791182e+00	2.730531e+00	2.880405e+00	2.351942e+00	2.433865e+00	2.458143e+00	2.547951e+00	2.353610e+00	3.895207e+00	1.948748e+00	1.945881e+00	1.950675e+00	2.098884e+00	2.108491e+00	2.115033e+00	2.343559e+00	2.349469e+00	2.339586e+00	4.009207e+00	3.950590e+00	4.020938e+00	4.063440e+00	4.093137e+00	1.958176e+00	1.957384e+00	2.144104e+00	2.156650e+00	2.317432e+00	2.307323e+00	3.966720e+00	3.998717e+00	1.959497e+00	1.954857e+00	2.141539e+00	2.127984e+00	2.317827e+00	2.329621e+00	1.946941e+00	2.753369e+00	2.903602e+00	2.101975e+00	2.094760e+00	2.347611e+00	2.570952e+00	2.364827e+00	3.857136e+00	2.188938e+00	1.949251e+00	1.952271e+00	1.945635e+00	2.113850e+00	2.121304e+00	2.339814e+00	2.333884e+00	2.350259e+00	3.784824e+00	3.877799e+00	3.707956e+00	3.982335e+00	2.747471e+00	2.690519e+00	2.844808e+00	1.963927e+00	2.404230e+00	2.514716e+00	2.331798e+00	2.155379e+00	2.698510e+00	2.643185e+00	2.593577e+00	2.748251e+00	2.307825e+00	2.338774e+00	2.371207e+00	2.434943e+00	2.279209e+00	2.644423e+00	3.838450e+00	3.757010e+00	3.950398e+00	1.965411e+00	1.958892e+00	1.962049e+00	2.150218e+00	2.135795e+00	2.171023e+00	2.799646e+00	2.310979e+00	2.321963e+00	2.292534e+00	1.947373e+00	2.478364e+00	2.305886e+00	2.106173e+00	2.588972e+00	2.533571e+00	2.489962e+00	2.635154e+00	2.344517e+00	2.276500e+00	2.307285e+00	2.354889e+00	2.231605e+00	3.663944e+00	2.058738e+00	2.178381e+00	2.540624e+00	1.949207e+00	1.951699e+00	2.692345e+00	2.119133e+00	2.126111e+00	2.097032e+00	2.335515e+00	2.329757e+00	2.394256e+00	3.561183e+00	3.678077e+00	2.254236e+00	2.480080e+00	2.439744e+00	2.577515e+00	3.786080e+00	2.252138e+00	2.320420e+00	2.210738e+00	2.431557e+00	2.385315e+00	2.354712e+00	1.971745e+00	2.467680e+00	2.210393e+00	2.231162e+00	2.265602e+00	2.177925e+00	2.172835e+00	2.394954e+00	2.521184e+00	2.293739e+00	2.296545e+00	2.192755e+00	2.342315e+00	2.316194e+00	2.416959e+00	2.195230e+00	2.240491e+00	2.164654e+00	2.304181e+00	2.269121e+00	2.253636e+00	2.325698e+00	2.171065e+00	2.182231e+00	2.203814e+00	2.144395e+00	2.282156e+00	2.369417e+00	2.223778e+00	2.153463e+00	2.238249e+00	2.210881e+00	2.204180e+00	2.249186e+00	2.149841e+00	2.160990e+00	2.177004e+00	1.947000e+00	2.130213e+00	2.226123e+00	2.285623e+00	2.114804e+00	2.189354e+00	2.136746e+00	2.186004e+00	2.183462e+00	2.340950e+00	2.216564e+00	2.142765e+00	2.163984e+00	2.123512e+00	3.451423e+00	2.164172e+00	2.146187e+00	2.150458e+00	2.161216e+00	1.948508e+00	1.951351e+00	2.128718e+00	2.137046e+00	2.149411e+00	2.123191e+00	2.129848e+00	2.112789e+00	2.330343e+00	2.323340e+00	2.164278e+00	3.351414e+00	3.413446e+00	2.187300e+00	3.576363e+00	2.157962e+00	2.117482e+00	2.130156e+00	2.137355e+00	2.147188e+00	2.139073e+00	2.313695e+00	2.123224e+00	2.138762e+00	2.107461e+00	2.116264e+00	2.105621e+00	2.116713e+00	2.104144e+00	2.113583e+00	2.118601e+00	2.125596e+00	2.097684e+00	2.124413e+00	2.120188e+00	2.135100e+00	2.102130e+00	2.096411e+00	2.090162e+00	2.101915e+00	2.081774e+00	2.101803e+00	2.108648e+00	2.115858e+00	2.089191e+00	2.107142e+00	2.091637e+00	2.120339e+00	2.093252e+00	2.084810e+00	2.095851e+00	2.075180e+00	2.095440e+00	2.111258e+00	2.084615e+00	2.080703e+00	2.090777e+00	2.070907e+00	2.090401e+00	2.109661e+00	2.079531e+00	2.077945e+00	2.087577e+00	2.068643e+00	2.088077e+00	2.104176e+00	2.074679e+00	2.076963e+00	2.078948e+00	2.085421e+00	2.069707e+00	2.082188e+00	2.086455e+00	2.098143e+00	2.068288e+00	2.084335e+00	2.068230e+00	2.101924e+00	2.070746e+00	2.081658e+00	2.085514e+00	2.073766e+00	2.078036e+00	2.095190e+00	2.065675e+00	2.085441e+00	2.086485e+00	2.079590e+00	2.075581e+00	2.096162e+00	2.062669e+00	2.090476e+00	2.089254e+00	2.086991e+00	2.076166e+00	2.094310e+00	2.060116e+00	2.097479e+00	2.107336e+00	2.099851e+00	2.106807e+00	2.077054e+00	2.077840e+00	2.095859e+00	2.058906e+00	2.092507e+00	2.095943e+00	2.095833e+00	1.951508e+00	2.058672e+00	2.117837e+00	2.106615e+00	2.135121e+00	2.120286e+00	2.078491e+00	2.095344e+00	2.317435e+00	2.059119e+00	2.130028e+00	2.145003e+00	2.125508e+00	3.147016e+00	2.152495e+00	2.084423e+00	2.082357e+00	2.105618e+00	2.061899e+00	2.114006e+00	2.135462e+00	2.101821e+00	2.059594e+00	2.160926e+00	2.136788e+00	2.172029e+00	2.089263e+00	2.109258e+00	2.064599e+00	2.178913e+00	2.199750e+00	2.166202e+00	2.216607e+00	2.102141e+00	2.096383e+00	2.127199e+00	2.073326e+00	2.149479e+00	2.193340e+00	2.119578e+00	2.067994e+00	2.221527e+00	2.182839e+00	2.242143e+00	2.111433e+00	2.135659e+00	2.079426e+00	2.245117e+00	2.270465e+00	2.223328e+00	2.296837e+00	2.135303e+00	2.122603e+00	2.162342e+00	2.095909e+00	2.201384e+00	2.268979e+00	2.150592e+00	2.086731e+00	2.296232e+00	2.322276e+00	2.268903e+00	2.353224e+00	2.161778e+00	2.148724e+00	2.193823e+00	2.119026e+00	2.244957e+00	2.325251e+00	2.177839e+00	2.106686e+00	2.346638e+00	2.291266e+00	2.379976e+00	2.176993e+00	2.211377e+00	2.132473e+00	2.369072e+00	2.313476e+00	2.404329e+00	2.193737e+00	2.232225e+00	2.147023e+00	2.388892e+00	2.334547e+00	2.425652e+00	2.213263e+00	2.252057e+00	2.162265e+00	2.406355e+00	2.420749e+00	2.371417e+00	2.457997e+00	2.243782e+00	2.230389e+00	2.285472e+00	2.193177e+00	2.353874e+00	2.443521e+00	2.271392e+00	2.178030e+00	2.430893e+00	2.383746e+00	2.469039e+00	2.255798e+00	2.298277e+00	2.206677e+00	2.437247e+00	2.392934e+00	2.476335e+00	2.265538e+00	2.311228e+00	2.218053e+00	2.440188e+00	2.398796e+00	2.480027e+00	2.272408e+00	2.319869e+00	2.226755e+00	2.439678e+00	2.401265e+00	2.480438e+00	2.278397e+00	2.324905e+00	2.232448e+00	2.436980e+00	2.431127e+00	2.397956e+00	2.472583e+00	2.278965e+00	2.280063e+00	2.323208e+00	2.236309e+00	2.400694e+00	2.477789e+00	2.327179e+00	2.235688e+00	2.423252e+00	2.412662e+00	2.383038e+00	2.455062e+00	2.269156e+00	2.274741e+00	2.311092e+00	2.231236e+00	2.390983e+00	2.464906e+00	2.318648e+00	2.234752e+00	2.400933e+00	2.387567e+00	2.360774e+00	2.429748e+00	2.252532e+00	2.261990e+00	2.293946e+00	2.220805e+00	2.371897e+00	2.443179e+00	2.303664e+00	2.226416e+00	2.373012e+00	2.347089e+00	2.415030e+00	2.243222e+00	2.284080e+00	2.214316e+00	2.357908e+00	2.333492e+00	2.399289e+00	2.234716e+00	2.276198e+00	2.207411e+00	2.342715e+00	2.319931e+00	2.382929e+00	2.226544e+00	2.267148e+00	2.200615e+00	2.327428e+00	2.306576e+00	2.366348e+00	2.220550e+00	2.257363e+00	2.193928e+00	2.313270e+00	2.299251e+00	2.281994e+00	2.333723e+00	2.207701e+00	2.214149e+00	2.237607e+00	2.182546e+00	2.293481e+00	2.349791e+00	2.248909e+00	2.187960e+00	2.286169e+00	2.273435e+00	2.258849e+00	2.303470e+00	2.194979e+00	2.201039e+00	2.220002e+00	2.172449e+00	2.269281e+00	2.318245e+00	2.229171e+00	2.177396e+00	2.261748e+00	2.251032e+00	2.238475e+00	2.276388e+00	2.182328e+00	2.189264e+00	2.206862e+00	2.163527e+00	2.247393e+00	2.289488e+00	2.213497e+00	2.167766e+00	2.240561e+00	2.228901e+00	2.264430e+00	2.177744e+00	2.199725e+00	2.158991e+00	2.231428e+00	2.223741e+00	2.213879e+00	2.243217e+00	2.168643e+00	2.174119e+00	2.191064e+00	2.151450e+00	2.220058e+00	2.253292e+00	2.196770e+00	2.154774e+00	2.216341e+00	2.207016e+00	2.234603e+00	2.165105e+00	2.184690e+00	2.147806e+00	2.210126e+00	2.205090e+00	2.196836e+00	2.220378e+00	2.159443e+00	2.162307e+00	2.177036e+00	2.141486e+00	2.200566e+00	2.226957e+00	2.182836e+00	2.144300e+00	2.200917e+00	2.197958e+00	2.189266e+00	2.210979e+00	2.152535e+00	2.156607e+00	2.170953e+00	2.136667e+00	2.191788e+00	2.215139e+00	2.173905e+00	2.138888e+00	2.195305e+00	2.185829e+00	2.208152e+00	2.149050e+00	2.168368e+00	2.134262e+00	2.193330e+00	2.183270e+00	2.206207e+00	2.146671e+00	2.168171e+00	2.131748e+00	2.192071e+00	2.181838e+00	2.205125e+00	2.146516e+00	2.166105e+00	2.129545e+00	2.192194e+00	2.193557e+00	2.182300e+00	2.205818e+00	2.146177e+00	2.146408e+00	2.162706e+00	2.127473e+00	2.180797e+00	2.204916e+00	2.165826e+00	2.128125e+00	2.195584e+00	2.198705e+00	2.184950e+00	2.211125e+00	2.144805e+00	2.146064e+00	2.162831e+00	2.127262e+00	2.182454e+00	2.208013e+00	2.162596e+00	2.127123e+00	2.201756e+00	2.186649e+00	2.215315e+00	2.145806e+00	2.162670e+00	2.127280e+00	2.205733e+00	2.211020e+00	2.193609e+00	2.225320e+00	2.148697e+00	2.147954e+00	2.168118e+00	2.129192e+00	2.188890e+00	2.219992e+00	2.166657e+00	2.127702e+00	2.216517e+00	2.197506e+00	2.231640e+00	2.149930e+00	2.170163e+00	2.130829e+00	2.222170e+00	2.202169e+00	2.238471e+00	2.153993e+00	2.174181e+00	2.132453e+00	2.228735e+00	2.236221e+00	2.214398e+00	2.253067e+00	2.160824e+00	2.158211e+00	2.182121e+00	2.138245e+00	2.207319e+00	2.245555e+00	2.179156e+00	2.134917e+00	2.243427e+00	2.220256e+00	2.261149e+00	2.163964e+00	2.185843e+00	2.141615e+00	2.250518e+00	2.226446e+00	2.269225e+00	2.167998e+00	2.192133e+00	2.145014e+00	2.257389e+00	2.232956e+00	2.277093e+00	2.174098e+00	2.197260e+00	2.148651e+00	2.264573e+00	2.271874e+00	2.246965e+00	2.291913e+00	2.183264e+00	2.179654e+00	2.207167e+00	2.157521e+00	2.239432e+00	2.284612e+00	2.203359e+00	2.152877e+00	2.278012e+00	2.252688e+00	2.299034e+00	2.188645e+00	2.211043e+00	2.161793e+00	2.283850e+00	2.289398e+00	2.264302e+00	2.311045e+00	2.196961e+00	2.193775e+00	2.221738e+00	2.170518e+00	2.258117e+00	2.305387e+00	2.218047e+00	2.166085