TITLE = "SU2 Simulation"
VARIABLES = "Iteration","Buffet_Metric","TotalPressureLoss_1","KineticEnergyLoss_1","EntropyGen_1","EulerianWork_1","PressureRatio_1","FlowAngleIn_1","FlowAngleOut_1","AbsFlowAngleIn_1","AbsFlowAngleOut_1","MassFlowIn_1","MassFlowOut_1","MachIn_1","MachOut_1","TotalEfficiency_1","TotalStaticEfficiency_1","Res_Flow[0]","Res_Flow[1]","Res_Flow[2]","Res_Flow[3]","Res_Flow[4]","Linear_Solver_Iterations","CFL_Number","Time(min)"
ZONE T= "Convergence history"
           0, 0.9165362225, 0.9312488910, 0.0200574035, -7372.9093354924, 0.8378819346, -84.0430002910, -72.2106539284, -84.0430002910, -72.2106539284, -2.1660564412, -2724.3918014503, 0.0070004783, 0.1595616000, 0.0000000000, 0.0000000000, 8.90343105e-01, 2.95025177e+00, 3.38730173e+00, 6.32833128e+00, 0.00000000e+00, 10.0000000000, 10.0000000000, 0.0003693286
           1, 0.8677023587, 0.8342124010, 0.0308757613, -1075.0952818778, 0.6877878010, 44.4425765440, -73.2572277029, 44.4425765440, -73.2572277029, 68.6225872775, -4104.5851734728, 0.0321922690, 0.3217427269, 0.0000000000, 0.0000000000, 7.50899661e-01, 2.73482975e+00, 3.10513333e+00, 6.17531993e+00, 0.00000000e+00, 10.0000000000, 10.0000000000, 0.0007360245
           2, 0.8350417947, 0.6803248343, 0.0272955617, 18433.9218032119, 0.5876869420, 41.2277549957, -79.2374187682, 41.2277549957, -79.2374187682, 132.1970512304, -3120.4352420818, 0.0600059714, 0.4666224260, 0.0000000000, 0.0000000000, 5.68770772e-01, 2.35281342e+00, 2.77014292e+00, 6.03783878e+00, 0.00000000e+00, 10.0000000000, 10.0000000000, 0.0011485524
           3, 0.8120255207, 0.4162674091, 0.0155656848, 44747.1129767903, 0.5067911865, 29.0509095931, -85.2845532773, 29.0509095931, -85.2845532773, 270.3292981392, -1469.2021041377, 0.1073511997, 0.6150468598, 0.0000000000, 0.0000000000, 4.21722561e-01, 2.37458041e+00, 2.59933346e+00, 5.93236375e+00, 0.00000000e+00, 10.0000000000, 10.0000000000, 0.0015037987
           4, 0.8003217922, 0.1757289055, 0.0065771616, 63601.8650491827, 0.4515720729, 16.7682795578, 89.9214901647, 16.7682795578, 89.9214901647, 473.1675446758, 24.5641715753, 0.1742609146, 0.7370389022, 0.0000000000, 0.0000000000, 3.44713277e-01, 2.39543611e+00, 2.58435462e+00, 5.84183905e+00, 0.00000000e+00, 10.0000000000, 10.0000000000, 0.0019051593
           5, 0.7995978928, 0.1040097728, 0.0044318620, 72973.7664818561, 0.4118211703, 7.5115955676, 87.8752944016, 7.5115955676, 87.8752944016, 714.4744106692, 640.2801953712, 0.2598563867, 0.8214717016, 0.0000000000, 0.0000000000, 3.50903531e-01, 2.33586550e+00, 2.53589632e+00, 5.82614066e+00, 0.00000000e+00, 10.0000000000, 10.0000000000, 0.0022638619
           6, 0.8089635317, 0.0954888743, 0.0046286398, 80180.1665953288, 0.3735706355, 1.8831798861, 87.4089455354, 1.8831798861, 87.4089455354, 967.9411715287, 732.2579847751, 0.3612571150, 0.8801694158, 0.0000000000, 0.0000000000, 3.84141828e-01, 2.27919963e+00, 2.54295060e+00, 5.85841559e+00, 0.00000000e+00, 10.0000000000, 10.0000000000, 0.0026759899
           7, 0.8250785301, 0.0778887499, 0.0040585856, 88993.4556885229, 0.3340134090, -0.3884885242, 87.4175506037, -0.3884885242, 87.4175506037, 1206.8334174822, 673.7891212452, 0.4711318897, 0.9218719920, 0.0000000000, 0.0000000000, 4.05793883e-01, 2.28081247e+00, 2.57380736e+00, 5.87120956e+00, 0.00000000e+00, 10.0000000000, 10.0000000000, 0.0030288451
           8, 0.8459266036, 0.0543615767, 0.0029033569, 99323.1706372695, 0.2936620461, -0.6885625655, 87.4379786129, -0.6885625655, 87.4379786129, 1398.4372666890, 606.3566660929, 0.5768299457, 0.9461101489, 0.0000000000, 0.0000000000, 3.95574623e-01, 2.31820859e+00, 2.62223926e+00, 5.84277538e+00, 0.00000000e+00, 10.0000000000, 10.0000000000, 0.0034308455
           9, 0.8691120932, 0.0146858049, 0.0007629537, 111396.5072283050, 0.2535969030, -0.4245618512, 87.5536331341, -0.4245618512, 87.5536331341, 1529.3194885728, 515.5420556498, 0.6689726683, 0.9543103914, 0.0000000000, 0.0000000000, 3.47456080e-01, 2.29816288e+00, 2.58222143e+00, 5.77373901e+00, 0.00000000e+00, 10.0000000000, 10.0000000000, 0.0037952208
          10, 0.8925321294, -0.0069308109, -0.0003447263, 123041.9469707344, 0.2158945827, -0.3072425455, 87.7889677394, -0.3072425455, 87.7889677394, 1608.2513717782, 407.1802945870, 0.7438011680, 0.9448776115, 0.0000000000, 0.0000000000, 2.85246956e-01, 2.22944745e+00, 2.53705771e+00, 5.69629102e+00, 0.00000000e+00, 10.0000000000, 10.0000000000, 0.0042083511
          11, 0.9146504436, 0.0079029531, 0.0003753940, 133363.2033615173, 0.1821596804, -0.3343082885, 88.0121790685, -0.3343082885, 88.0121790685, 1655.3272982702, 315.3554409795, 0.8031061423, 0.9159630997, 0.0000000000, 0.0000000000, 2.30788775e-01, 2.21037096e+00, 2.48389877e+00, 5.61262351e+00, 0.00000000e+00, 10.0000000000, 10.0000000000, 0.0045636233
          12, 0.9347204709, 0.0485570683, 0.0021389654, 142572.6794843476, 0.1536961329, -0.3390824425, 88.1276837324, -0.3390824425, 88.1276837324, 1683.9466071870, 253.5766901057, 0.8494067512, 0.8624565825, 0.0000000000, 0.0000000000, 1.80983644e-01, 2.15859208e+00, 2.42653915e+00, 5.52598671e+00, 0.00000000e+00, 10.0000000000, 10.0000000000, 0.0049756904
          13, 0.9529847723, 0.0959558862, 0.0035618292, 150723.7080208099, 0.1318179492, -0.2464947971, 88.2458116950, -0.2464947971, 88.2458116950, 1701.4886117663, 201.2720251650, 0.8852611958, 0.7707548276, 0.0000000000, 0.0000000000, 1.19687779e-01, 2.08282195e+00, 2.36625995e+00, 5.43669149e+00, 0.00000000e+00, 10.0000000000, 10.0000000000, 0.0053295292
          14, 0.9703130555, 0.1763185868, 0.0046851405, 156462.9978354407, 0.1176281412, -0.1156522506, 88.3528878675, -0.1156522506, 88.3528878675, 1711.8036324879, 154.7561388209, 0.9117605516, 0.6218406493, 0.0000000000, 0.0000000000, 4.92244722e-02, 2.02899716e+00, 2.30324690e+00, 5.34571767e+00, 0.00000000e+00, 10.0000000000, 10.0000000000, 0.0057403237
          15, 0.9850379535, 0.4182569783, 0.0076924619, 157487.4751884713, 0.1113648697, -0.0421600469, 87.4341636982, -0.0421600469, 87.4341636982, 1718.4645601908, 178.7585963760, 0.9311082963, 0.4336154633, 0.0000000000, 0.0000000000, -1.58655262e-02, 2.00672746e+00, 2.24419240e+00, 5.25755967e+00, 0.00000000e+00, 10.0000000000, 10.0000000000, 0.0060985369
          16, 0.9937486258, 0.7814703724, 0.0159057598, 153711.4868206269, 0.1077201349, -0.0303560995, 83.3737733747, -0.0303560995, 83.3737733747, 1723.2749666761, 301.7892639860, 0.9452812953, 0.2775550334, 0.0000000000, 0.0000000000, -7.08027052e-02, 2.01235725e+00, 2.19565156e+00, 5.18058226e+00, 0.00000000e+00, 10.0000000000, 10.0000000000, 0.0065111160
          17, 0.9977165506, 0.9450189250, 0.0284189132, 145938.0099295633, 0.1056946852, -0.0498448457, 76.3627094935, -0.0498448457, 76.3627094935, 1726.8361418428, 368.7761333464, 0.9557313127, 0.1673732345, 0.0000000000, 0.0000000000, -9.61812301e-02, 2.03364795e+00, 2.16611432e+00, 5.14848908e+00, 0.00000000e+00, 10.0000000000, 10.0000000000, 0.0068694128
          18, 0.9993983370, 0.9874059511, 0.0342135229, 141863.2880199092, 0.1054596323, -0.0871286456, 65.7936966381, -0.0871286456, 65.7936966381, 1729.7401335995, 328.2247015497, 0.9636175189, 0.0855518950, 0.0000000000, 0.0000000000, -9.62912966e-02, 2.07262616e+00, 2.20895831e+00, 5.17193684e+00, 0.00000000e+00, 10.0000000000, 10.0000000000, 0.0073352530
          19, 0.9999882288, 0.9997730704, 0.0364889818, 138565.3771864573, 0.1083720568, -0.1346437007, -33.2429876944, -0.1346437007, -33.2429876944, 1732.2527408004, 94.3547017518, 0.9696697134, 0.0117627776, 0.0000000000, 0.0000000000, -1.10392294e-01, 2.14091017e+00, 2.27298090e+00, 5.20821076e+00, 0.00000000e+00, 10.0000000000, 10.0000000000, 0.0077348434
          20, 0.9993497353, 0.9887138860, 0.0382442103, 134334.9863412389, 0.1136848164, -0.1849467127, 64.8172978978, -0.1849467127, 64.8172978978, 1734.1856749525, -360.2051643291, 0.9742780501, 0.0852687529, 0.0000000000, 0.0000000000, -8.61012656e-02, 2.22882710e+00, 2.32919430e+00, 5.27700552e+00, 0.00000000e+00, 10.0000000000, 10.0000000000, 0.0081160570
          21, 0.9988827557, 0.9823454448, 0.0411212667, 130880.0402608980, 0.1159748296, -0.2388629859, 64.1354035503, -0.2388629859, 64.1354035503, 1735.8182316332, -484.0073652250, 0.9776852730, 0.1106656639, 0.0000000000, 0.0000000000, -9.31971890e-02, 2.27375014e+00, 2.38307223e+00, 5.32749545e+00, 0.00000000e+00, 10.0000000000, 10.0000000000, 0.0085056224
          22, 0.9987545866, 0.9819042935, 0.0444968568, 127603.4484260197, 0.1171212992, -0.2974194325, 62.5774010953, -0.2974194325, 62.5774010953, 1737.1748707694, -537.9400936686, 0.9804258128, 0.1162327619, 0.0000000000, 0.0000000000, -9.98477510e-02, 2.30743639e+00, 2.43387057e+00, 5.32945049e+00, 0.00000000e+00, 10.0000000000, 10.0000000000, 0.0088922907
          23, 0.9985388683, 0.9789271323, 0.0446081149, 127324.0010825243, 0.1174672227, -0.3478313339, 57.4744658021, -0.3478313339, 57.4744658021, 1738.3812303465, -680.6045377507, 0.9828218868, 0.1257657452, 0.0000000000, 0.0000000000, -7.64278390e-02, 2.35765088e+00, 2.47522020e+00, 5.32760603e+00, 0.00000000e+00, 10.0000000000, 10.0000000000, 0.0092742871
          24, 0.9985840711, 0.9780350793, 0.0414127651, 130115.5525970840, 0.1169242516, -0.3892856355, 53.4224999753, -0.3892856355, 53.4224999753, 1739.3760095618, -746.2763843991, 0.9850455552, 0.1241160918, 0.0000000000, 0.0000000000, 7.62531387e-02, 2.43508027e+00, 2.46142694e+00, 5.34878651e+00, 0.00000000e+00, 10.0000000000, 10.0000000000, 0.0096593888
          25, 0.9988452718, 0.9807163434, 0.0379973619, 132323.6551191585, 0.1177061021, -0.4235146855, 52.4630865337, -0.4235146855, 52.4630865337, 1740.0740652116, -695.5227810357, 0.9872423206, 0.1115740526, 0.0000000000, 0.0000000000, 8.87115991e-02, 2.44843093e+00, 2.47852881e+00, 5.38773691e+00, 0.00000000e+00, 10.0000000000, 10.0000000000, 0.0100402217
          26, 0.9991938005, 0.9855817552, 0.0350548353, 134022.9047415787, 0.1187294586, -0.4469798463, 50.4216839426, -0.4469798463, 50.4216839426, 1740.3677490700, -613.3210363599, 0.9892055172, 0.0926746556, 0.0000000000, 0.0000000000, 1.13729190e-01, 2.47778885e+00, 2.51442892e+00, 5.44375057e+00, 0.00000000e+00, 10.0000000000, 10.0000000000, 0.0104271671
          27, 0.9995651514, 0.9918550372, 0.0331518048, 134894.0622495956, 0.1198247643, -0.4655691515, 46.5227963814, -0.4655691515, 46.5227963814, 1740.5365089429, -490.0787417721, 0.9909271455, 0.0676351528, 0.0000000000, 0.0000000000, 1.33928899e-01, 2.49516113e+00, 2.55843584e+00, 5.47807430e+00, 0.00000000e+00, 10.0000000000, 10.0000000000, 0.0108099144
          28, 0.9998377943, 0.9966384352, 0.0296537196, 137138.6025583851, 0.1206176145, -0.4848834696, 42.2350839072, -0.4848834696, 42.2350839072, 1740.8071908632, -325.0613927443, 0.9924953789, 0.0411214081, 0.0000000000, 0.0000000000, 1.42287879e-01, 2.50809520e+00, 2.55750650e+00, 5.50064451e+00, 0.00000000e+00, 10.0000000000, 10.0000000000, 0.0111921883
          29, 0.9999938392, 0.9998615651, 0.0269776161, 138548.1907666064, 0.1218259793, -0.5057022456, 58.2985439919, -0.5057022456, 58.2985439919, 1741.1418222542, -45.3403125287, 0.9938539649, 0.0079652417, 0.0000000000, 0.0000000000, 1.51588212e-01, 2.52977564e+00, 2.57026760e+00, 5.52763605e+00, 0.00000000e+00, 10.0000000000, 10.0000000000, 0.0115762476
          30, 0.9998395310, 0.9963179795, 0.0257281047, 138351.2648310669, 0.1241564766, -0.5299874792, 13.8055028902, -0.5299874792, 13.8055028902, 1741.4356397029, 430.7662948673, 0.9948880233, 0.0402316786, 0.0000000000, 0.0000000000, 1.51654833e-01, 2.53519450e+00, 2.58013155e+00, 5.53966305e+00, 0.00000000e+00, 10.0000000000, 10.0000000000, 0.0119603892
          31, 0.9989776062, 0.9759249536, 0.0238338324, 138151.2550681262, 0.1275898151, -0.5595858418, 12.8643183803, -0.5595858418, 12.8643183803, 1741.6644169728, 1100.9391436395, 0.9955723562, 0.1002107838, 0.0000000000, 0.0000000000, 1.34185138e-01, 2.58141412e+00, 2.59812411e+00, 5.57282114e+00, 0.00000000e+00, 10.0000000000, 10.0000000000, 0.0123436204
          32, 0.9965139960, 0.9214189205, 0.0230380144, 137121.1450692390, 0.1311662309, -0.5938759865, 13.2274834717, -0.5938759865, 13.2274834717, 1742.0729486779, 2033.7915467984, 0.9959785663, 0.1833152943, 0.0000000000, 0.0000000000, 1.00294401e-01, 2.59749376e+00, 2.62594126e+00, 5.57690773e+00, 0.00000000e+00, 10.0000000000, 10.0000000000, 0.0127231278
          33, 0.9959395121, 0.9076851545, 0.0224207360, 137356.1354312767, 0.1317976775, -0.6195949548, 12.9465901137, -0.6195949548, 12.9465901137, 1742.4077880170, 2199.4809727401, 0.9962343666, 0.1975942987, 0.0000000000, 0.0000000000, 1.55208414e-01, 2.65365416e+00, 2.69416790e+00, 5.58374195e+00, 0.00000000e+00, 9.0000000000, 10.0000000000, 0.0130903608
          34, 0.9952973750, 0.8895326468, 0.0211043737, 137937.2704677508, 0.1327822190, -0.6392126117, 12.6429412119, -0.6392126117, 12.6429412119, 1742.4904650050, 2376.0269603305, 0.9964954530, 0.2120831883, 0.0000000000, 0.0000000000, 1.39291101e-01, 2.61432229e+00, 2.66007706e+00, 5.54900290e+00, 0.00000000e+00, 9.0000000000, 10.0000000000, 0.0134677107
          35, 0.9945685205, 0.8684965089, 0.0198579810, 138459.8421417119, 0.1337349256, -0.6513161131, 12.2795073463, -0.6513161131, 12.2795073463, 1742.2751151329, 2562.1236275774, 0.9967768458, 0.2274115080, 0.0000000000, 0.0000000000, 1.18838700e-01, 2.60283495e+00, 2.65424295e+00, 5.54318744e+00, 0.00000000e+00, 9.0000000000, 10.0000000000, 0.0138163736
          36, 0.9937521444, 0.8477579781, 0.0191691300, 138570.7217975506, 0.1346276801, -0.6564990455, 10.7453670524, -0.6564990455, 10.7453670524, 1741.7156163695, 2763.9679100211, 0.9970686659, 0.2434760335, 0.0000000000, 0.0000000000, 1.03519536e-01, 2.58426952e+00, 2.66953854e+00, 5.62374842e+00, 0.00000000e+00, 10.0000000000, 10.0000000000, 0.0142121275
          37, 0.9926684841, 0.8222401274, 0.0186017780, 138516.9818683318, 0.1356787603, -0.6537119400, 10.3457495719, -0.6537119400, 10.3457495719, 1740.7289087251, 2996.2659402782, 0.9971055254, 0.2632906703, 0.0000000000, 0.0000000000, 9.66055975e-02, 2.56824481e+00, 2.94887655e+00, 6.02628469e+00, 0.00000000e+00, 9.0000000000, 10.0000000000, 0.0145638030
          38, 0.9914447664, 0.7922070538, 0.0178716928, 138742.8230027523, 0.1363996932, -0.6473899185, 9.5057112094, -0.6473899185, 9.5057112094, 1739.7461440895, 3240.2267572733, 0.9970362028, 0.2844454445, 0.0000000000, 0.0000000000, 9.15050134e-02, 2.57145281e+00, 2.92850676e+00, 5.99730145e+00, 0.00000000e+00, 10.0000000000, 10.0000000000, 0.0149651847
          39, 0.9901735499, 0.7612856601, 0.0171207548, 138882.4410522017, 0.1373560467, -0.6399233823, 8.6018567742, -0.6399233823, 8.6018567742, 1739.1196665570, 3478.4532436577, 0.9970629800, 0.3046031981, 0.0000000000, 0.0000000000, 1.14421212e-01, 2.59415279e+00, 2.92005652e+00, 5.97683436e+00, 0.00000000e+00, 10.0000000000, 10.0000000000, 0.0153337994
          40, 0.9889021825, 0.7276109507, 0.0161409738, 139188.9924707601, 0.1383221742, -0.6270157197, 7.8356963953, -0.6270157197, 7.8356963953, 1738.9239694360, 3703.2007506349, 0.9973329600, 0.3234394137, 0.0000000000, 0.0000000000, 1.36508987e-01, 2.61021274e+00, 2.93393191e+00, 5.96710778e+00, 0.00000000e+00, 10.0000000000, 10.0000000000, 0.0157471566
          41, 0.9874996314, 0.6980619786, 0.0156700907, 138994.3432207697, 0.1395606356, -0.6066806493, 7.4490021549, -0.6066806493, 7.4490021549, 1738.9973025195, 3931.1214118956, 0.9979267645, 0.3426975299, 0.0000000000, 0.0000000000, 1.49722241e-01, 2.63572800e+00, 2.95493225e+00, 5.97298239e+00, 0.00000000e+00, 10.0000000000, 10.0000000000, 0.0161116981
          42, 0.9859568488, 0.7072417864, 0.0183175427, 136135.0996295218, 0.1415217229, -0.5815815209, 7.3335591570, -0.5815815209, 7.3335591570, 1739.1990816706, 4147.4110548890, 0.9989564462, 0.3616210124, 0.0000000000, 0.0000000000, 1.87519997e-01, 2.68149354e+00, 2.99153664e+00, 5.98664809e+00, 0.00000000e+00, 10.0000000000, 10.0000000000, 0.0165136217
          43, 0.9844007021, 0.7246413358, 0.0221832744, 132447.4511006756, 0.1431662630, -0.5519289788, 6.8381002936, -0.5519289788, 6.8381002936, 1739.4820113417, 4341.9620766429, 1.0004190118, 0.3799903897, 0.0000000000, 0.0000000000, 2.21344164e-01, 2.71527781e+00, 3.03181821e+00, 5.99343968e+00, 0.00000000e+00, 10.0000000000, 10.0000000000, 0.0168727409
          44, 0.9827093840, 0.7262436521, 0.0247846902, 129727.2824047968, 0.1447455433, -0.5176360830, 6.3200470112, -0.5176360830, 6.3200470112, 1739.7947011316, 4548.3757403778, 1.0022662161, 0.3991280952, 0.0000000000, 0.0000000000, 2.18239252e-01, 2.71699396e+00, 2.99904175e+00, 5.96989772e+00, 0.00000000e+00, 10.0000000000, 10.0000000000, 0.0173240573
          45, 0.9813273860, 0.7309748466, 0.0275256921, 127147.7697061355, 0.1456837614, -0.4811656478, 5.8426721377, -0.4811656478, 5.8426721377, 1740.0696753127, 4698.4622292345, 1.0044070499, 0.4146198356, 0.0000000000, 0.0000000000, 2.36844476e-01, 2.73768618e+00, 2.97792400e+00, 5.96609003e+00, 0.00000000e+00, 10.0000000000, 10.0000000000, 0.0177398883
          46, 0.9801985696, 0.7401142101, 0.0306109121, 124123.5561472535, 0.1469420545, -0.4418188118, 6.1500945294, -0.4418188118, 6.1500945294, 1740.1418139473, 4806.7228921020, 1.0066852752, 0.4259345010, 0.0000000000, 0.0000000000, 2.63694479e-01, 2.76015435e+00, 2.99130901e+00, 5.97773818e+00, 0.00000000e+00, 10.0000000000, 10.0000000000, 0.0181524895
          47, 0.9791268350, 0.7508260579, 0.0341825003, 120671.5787716881, 0.1481913462, -0.4037385638, 7.7121785264, -0.4037385638, 7.7121785264, 1739.9424602787, 4885.1988643337, 1.0089503331, 0.4362055966, 0.0000000000, 0.0000000000, 3.04497065e-01, 2.81861967e+00, 3.04093379e+00, 6.01526618e+00, 0.00000000e+00, 10.0000000000, 10.0000000000, 0.0185129424
          48, 0.9777083373, 0.7534259019, 0.0367544461, 117567.4397549540, 0.1504258150, -0.3718337549, 10.2487018645, -0.3718337549, 10.2487018645, 1739.5102023958, 4993.7725855750, 1.0112081957, 0.4481692459, 0.0000000000, 0.0000000000, 3.31903724e-01, 2.86514563e+00, 3.05753054e+00, 6.04096134e+00, 0.00000000e+00, 10.0000000000, 10.0000000000, 0.0189265175
          49, 0.9763616979, 0.7557849105, 0.0391171835, 114548.7440834891, 0.1528124051, -0.3367656431, 13.2168257712, -0.3367656431, 13.2168257712, 1738.3963702914, 5070.4870887445, 1.0125285720, 0.4584702207, 0.0000000000, 0.0000000000, 3.64099066e-01, 2.89305081e+00, 3.07135503e+00, 6.05564026e+00, 0.00000000e+00, 10.0000000000, 10.0000000000, 0.0192809051
          50, 0.9750072006, 0.7541046304, 0.0403403569, 112227.0581728888, 0.1557862689, -0.2915223173, 14.2917674129, -0.2915223173, 14.2917674129, 1737.2228665979, 5190.0095916246, 1.0129429208, 0.4672049257, 0.0000000000, 0.0000000000, 3.99719104e-01, 2.93357652e+00, 3.08594541e+00, 6.07480430e+00, 0.00000000e+00, 10.0000000000, 10.0000000000, 0.0196997074
          51, 0.9734112632, 0.7479091829, 0.0407319405, 110471.1115822921, 0.1591556671, -0.2385486015, 13.9457692295, -0.2385486015, 13.9457692295, 1737.3631499904, 5374.5413578369, 1.0145125534, 0.4771467424, 0.0000000000, 0.0000000000, 4.50846081e-01, 2.96830744e+00, 3.11881408e+00, 6.10292815e+00, 0.00000000e+00, 10.0000000000, 10.0000000000, 0.0200601432
          52, 0.9716612921, 0.7415836122, 0.0410625911, 108553.3068748123, 0.1630412437, -0.1724444788, 13.5166480709, -0.1724444788, 13.5166480709, 1737.8120051760, 5578.3835530413, 1.0181187033, 0.4869772387, 0.0000000000, 0.0000000000, 5.04302456e-01, 3.01326603e+00, 3.14847285e+00, 6.13915911e+00, 0.00000000e+00, 10.0000000000, 10.0000000000, 0.0204710258
          53, 0.9685017498, 0.7239936272, 0.0403249284, 106671.7796184535, 0.1690642783, -0.0955774592, 12.0399875660, -0.0955774592, 12.0399875660, 1737.4851102213, 5950.5110703405, 1.0259410229, 0.5050832712, 0.0000000000, 0.0000000000, 5.62874225e-01, 3.06892782e+00, 3.17867755e+00, 6.18521103e+00, 0.00000000e+00, 10.0000000000, 10.0000000000, 0.0208292741
          54, 0.9644470389, 0.7064195735, 0.0402798052, 103824.4943684647, 0.1761350013, -0.0516612972, 9.9181679294, -0.0516612972, 9.9181679294, 1737.9556661631, 6400.9722668865, 1.0379469049, 0.5270804463, 0.0000000000, 0.0000000000, 5.98000177e-01, 3.20567313e+00, 3.24994620e+00, 6.23624002e+00, 0.00000000e+00, 10.0000000000, 10.0000000000, 0.0212386336
          55, 0.9591664503, 0.6713360026, 0.0379190541, 103106.5382032018, 0.1834369642, -0.0259760941, 7.2029884640, -0.0259760941, 7.2029884640, 1735.4154767444, 6939.6930159768, 1.0413769405, 0.5561961181, 0.0000000000, 0.0000000000, 6.42279782e-01, 3.34314480e+00, 3.29150387e+00, 6.29943415e+00, 0.00000000e+00, 10.0000000000, 10.0000000000, 0.0215982344
          56, 0.9528581132, 0.6209549133, 0.0342935062, 104169.2299870932, 0.1896484749, 0.1987643412, 6.3249032823, 0.1987643412, 6.3249032823, 1741.1721670555, 7514.5425120332, 1.0364032862, 0.5924980884, 0.0000000000, 0.0000000000, 6.94290050e-01, 3.37779273e+00, 3.33879958e+00, 6.34777335e+00, 0.00000000e+00, 10.0000000000, 10.0000000000, 0.0220130574
          57, 0.9447322937, 0.5438446803, 0.0284641837, 106852.0442597224, 0.1970736563, 0.4829035400, 6.4685672038, 0.4829035400, 6.4685672038, 1756.7067460266, 8240.1628745276, 0.9810464238, 0.6359851783, 0.0000000000, 0.0000000000, 7.47521703e-01, 3.35978344e+00, 3.38192186e+00, 6.38407592e+00, 0.00000000e+00, 10.0000000000, 10.0000000000, 0.0223762024
          58, 0.9342843897, 0.4266099770, 0.0201770160, 110957.5162743283, 0.2078825984, 0.6820508393, 6.8113218985, 0.6820508393, 6.8113218985, 1728.0054546285, 9062.4303993092, 0.8703708698, 0.6827730458, 0.0000000000, 0.0000000000, 7.70189789e-01, 3.39172406e+00, 3.39813396e+00, 6.41869498e+00, 0.00000000e+00, 10.0000000000, 10.0000000000, 0.0227875269
          59, 0.9187081209, 0.3039257556, 0.0134400980, 109547.7300740773, 0.2280142819, 0.4460783690, 7.1103166514, 0.4460783690, 7.1103166514, 1660.3869390338, 10016.5336150476, 0.8115704134, 0.7317517746, 0.0000000000, 0.0000000000, 7.97052721e-01, 3.44305078e+00, 3.43383622e+00, 6.45259342e+00, 0.00000000e+00, 10.0000000000, 10.0000000000, 0.0231488258
          60, 0.9011028801, 0.1879955221, 0.0081133323, 108227.5375226946, 0.2474065126, 0.2471482510, 7.6435867279, 0.2471482510, 7.6435867279, 1636.7015503640, 11035.6924022852, 0.7949919488, 0.7844605873, 0.0000000000, 0.0000000000, 8.24780794e-01, 3.49041340e+00, 3.46198240e+00, 6.47614333e+00, 0.00000000e+00, 10.0000000000, 10.0000000000, 0.0235670991
          61, 0.8813796542, 0.1261834160, 0.0057173140, 104674.7253098487, 0.2682457489, 0.4717655157, 7.9517913624, 0.4717655157, 7.9517913624, 1641.3289500213, 12152.9094652497, 0.7913239158, 0.8355917970, 0.0000000000, 0.0000000000, 8.51681268e-01, 3.54471080e+00, 3.49688033e+00, 6.49973243e+00, 0.00000000e+00, 10.0000000000, 10.0000000000, 0.0239331950
          62, 0.8530561835, 0.0632600473, 0.0030851139, 99742.9621872159, 0.2965904085, 0.5990603898, 8.5676910713, 0.5990603898, 8.5676910713, 1648.3488506650, 13539.7856982599, 0.7946042754, 0.8996739127, 0.0000000000, 0.0000000000, 8.87193735e-01, 3.61078743e+00, 3.54198627e+00, 6.52588106e+00, 0.00000000e+00, 10.0000000000, 10.0000000000, 0.0243473570
          63, 0.8458610998, -0.0018993602, -0.0000884234, 100707.8402602597, 0.3045154158, 0.6755916660, 7.4580381082, 0.6755916660, 7.4580381082, 1652.9379228270, 14035.1105729345, 0.7943348846, 0.9116397517, 0.0000000000, 0.0000000000, 9.23318263e-01, 3.68490508e+00, 3.59681358e+00, 6.55193974e+00, 0.00000000e+00, 10.0000000000, 10.0000000000, 0.0247118955
          64, 0.8384578957, -0.0227562317, -0.0010598918, 99765.2954762059, 0.3130118435, 0.6110045591, 6.6894592399, 0.6110045591, 6.6894592399, 1661.3591917811, 14507.8177076977, 0.7955076845, 0.9220914325, 0.0000000000, 0.0000000000, 9.41204725e-01, 3.72173290e+00, 3.60992428e+00, 6.54922363e+00, 0.00000000e+00, 10.0000000000, 10.0000000000, 0.0251229596
          65, 0.8282131944, -0.1070199110, -0.0047443774, 100999.0408147648, 0.3235775326, 0.5252292907, 6.3701750420, 0.5252292907, 6.3701750420, 1672.8041404865, 15165.1934433081, 0.7961698151, 0.9390099080, 0.0000000000, 0.0000000000, 9.58664061e-01, 3.78596677e+00, 3.61049768e+00, 6.58897071e+00, 0.00000000e+00, 10.0000000000, 10.0000000000, 0.0254865018
          66, 0.8191407880, -0.1128448044, -0.0051153132, 99502.7687846823, 0.3331165476, 0.4968208149, 5.9890165531, 0.4968208149, 5.9890165531, 1684.7951812906, 15695.2476841239, 0.7969841705, 0.9523392589, 0.0000000000, 0.0000000000, 9.97515482e-01, 3.86806759e+00, 3.64903103e+00, 6.65544523e+00, 0.00000000e+00, 10.0000000000, 10.0000000000, 0.0258997623
          67, 0.8081093802, -0.1149747147, -0.0053920711, 97468.4791232721, 0.3439178780, 0.6006232706, 5.7355328866, 0.6006232706, 5.7355328866, 1697.6396490946, 16264.4601073267, 0.8006176100, 0.9698299637, 0.0000000000, 0.0000000000, 1.03034089e+00, 3.96706152e+00, 3.65595199e+00, 6.74667630e+00, 0.00000000e+00, 10.0000000000, 10.0000000000, 0.0262657088
          68, 0.7875182122, -0.1464577358, -0.0071353916, 94939.3953720132, 0.3626805733, 0.8133391452, 5.4440764988, 0.8133391452, 5.4440764988, 1710.6645165584, 17164.2247168046, 0.8102999484, 1.0039108517, 0.0000000000, 0.0000000000, 1.07172478e+00, 4.07248177e+00, 3.68051316e+00, 6.86626457e+00, 0.00000000e+00, 10.0000000000, 10.0000000000, 0.0266751172
          69, 0.7672845069, -0.1607894941, -0.0081666013, 91801.8630943033, 0.3816046944, 1.0361002533, 5.7037212297, 1.0361002533, 5.7037212297, 1721.5107349081, 17936.8832706517, 0.8286884376, 1.0323636259, 0.0000000000, 0.0000000000, 1.10955962e+00, 4.17851090e+00, 3.69927093e+00, 6.99919754e+00, 0.00000000e+00, 10.0000000000, 10.0000000000, 0.0270368478
          70, 0.7328157049, 0.0062387979, 0.0004470670, 80149.5490036043, 0.4001520065, 1.0989526755, 6.0325390794, 1.0989526755, 6.0325390794, 1743.7465081141, 18215.1744848677, 0.8653960380, 1.1259033223, 0.0000000000, 0.0000000000, 1.30173497e+00, 3.99624264e+00, 4.12931567e+00, 6.97362483e+00, 0.00000000e+00, 10.0000000000, 10.0000000000, 0.0275003395
          71, 0.6885437997, 0.0981453151, 0.0089266432, 65150.4535061814, 0.4351139059, 1.1835566258, 4.3642326713, 1.1835566258, 4.3642326713, 1771.1873232914, 19087.2652737693, 0.9202339871, 1.1993075867, 0.0000000000, 0.0000000000, 1.21963573e+00, 3.91616056e+00, 4.02419692e+00, 6.88490168e+00, 0.00000000e+00, 10.0000000000, 10.0000000000, 0.0279094104
          72, 0.6482126250, 0.1525061655, 0.0160411797, 51221.1721350388, 0.4708011701, 1.0898748820, 2.4014040491, 1.0898748820, 2.4014040491, 1791.5595433305, 20058.7216205953, 0.9844708281, 1.2424068239, 0.0000000000, 0.0000000000, 1.14777042e+00, 3.84138107e+00, 3.92664073e+00, 6.80470159e+00, 0.00000000e+00, 10.0000000000, 10.0000000000, 0.0282938097
          73, 0.6118447463, 0.1872176975, 0.0218805018, 39232.9324964862, 0.5028800566, 0.5951408254, 0.7223413703, 0.5951408254, 0.7223413703, 1796.5856544165, 20861.4604994034, 1.0458442729, 1.2759388819, 0.0000000000, 0.0000000000, 1.08451309e+00, 3.77413159e+00, 3.83846794e+00, 6.72810143e+00, 0.00000000e+00, 10.0000000000, 10.0000000000, 0.0286769515
          74, 0.5827333893, 0.2039906864, 0.0254586013, 30816.8798505836, 0.5282537657, 0.0852495700, -0.6611048315, 0.0852495700, -0.6611048315, 1777.7199144910, 21255.6654607804, 1.0770591583, 1.3007504520, 0.0000000000, 0.0000000000, 1.03792023e+00, 3.72132660e+00, 3.76418890e+00, 6.65655105e+00, 0.00000000e+00, 10.0000000000, 10.0000000000, 0.0290619845
          75, 0.5666477528, 0.2035777905, 0.0263217949, 27850.4728960964, 0.5404092355, 0.1052094806, -1.5809730472, 0.1052094806, -1.5809730472, 1761.6796401882, 21261.0894996504, 1.0841570526, 1.3232997979, 0.0000000000, 0.0000000000, 9.93854531e-01, 3.67091589e+00, 3.68881487e+00, 6.59323111e+00, 0.00000000e+00, 10.0000000000, 10.0000000000, 0.0294426333
          76, 0.5537946918, 0.2033121508, 0.0272197442, 25249.5809185153, 0.5493245189, 0.4973507763, -2.1717208575, 0.4973507763, -2.1717208575, 1746.7963500379, 21105.5369137350, 1.0735541151, 1.3457258877, 0.0000000000, 0.0000000000, 9.64267980e-01, 3.63405316e+00, 3.63136175e+00, 6.54919770e+00, 0.00000000e+00, 10.0000000000, 10.0000000000, 0.0298252172
          77, 0.5464944370, 0.2074175286, 0.0287399006, 22759.9336989940, 0.5535182635, 0.6991589099, -2.5075036241, 0.6991589099, -2.5075036241, 1741.3527150225, 20927.2174313844, 1.0656168599, 1.3636910240, 0.0000000000, 0.0000000000, 9.33797487e-01, 3.60758916e+00, 3.55844169e+00, 6.51512114e+00, 0.00000000e+00, 10.0000000000, 10.0000000000, 0.0302100461
          78, 0.5402169904, 0.2229474994, 0.0323880912, 17801.0920328248, 0.5573378852, 0.7796372998, -2.7175549065, 0.7796372998, -2.7175549065, 1737.2600609405, 20722.6053776777, 1.0659539061, 1.3781760254, 0.0000000000, 0.0000000000, 9.27860875e-01, 3.59434533e+00, 3.54163384e+00, 6.49418430e+00, 0.00000000e+00, 10.0000000000, 10.0000000000, 0.0305942181
          79, 0.5309229854, 0.2383859077, 0.0364889376, 11765.3998942451, 0.5637187723, 0.7335900166, -2.6090078236, 0.7335900166, -2.6090078236, 1735.0331131649, 20602.6424696608, 1.0774531416, 1.3955388886, 0.0000000000, 0.0000000000, 9.02867125e-01, 3.56000375e+00, 3.51655338e+00, 6.46948553e+00, 0.00000000e+00, 10.0000000000, 10.0000000000, 0.0309779991
          80, 0.5277275251, 0.2504350271, 0.0394948797, 7657.2861979432, 0.5659072623, 0.3750511854, -2.3820098136, 0.3750511854, -2.3820098136, 1724.7820294259, 20405.5891622778, 1.0869487378, 1.4016029538, 0.0000000000, 0.0000000000, 8.69150664e-01, 3.52350517e+00, 3.48087762e+00, 6.44778017e+00, 0.00000000e+00, 10.0000000000, 10.0000000000, 0.0313629875